
                                 *****************
                                 * O   R   C   A *
                                 *****************

                                            #,                                       
                                            ###                                      
                                            ####                                     
                                            #####                                    
                                            ######                                   
                                           ########,                                 
                                     ,,################,,,,,                         
                               ,,#################################,,                 
                          ,,##########################################,,             
                       ,#########################################, ''#####,          
                    ,#############################################,,   '####,        
                  ,##################################################,,,,####,       
                ,###########''''           ''''###############################       
              ,#####''   ,,,,##########,,,,          '''####'''          '####       
            ,##' ,,,,###########################,,,                        '##       
           ' ,,###''''                  '''############,,,                           
         ,,##''                                '''############,,,,        ,,,,,,###''
      ,#''                                            '''#######################'''  
     '                                                          ''''####''''         
             ,#######,   #######,   ,#######,      ##                                
            ,#'     '#,  ##    ##  ,#'     '#,    #''#        ,####,   ,####,        
            ##       ##  ##   ,#'  ##            #'  '#       #'       #'  '#        
            ##       ##  #######   ##           ,######,      #####,   #    #        
            '#,     ,#'  ##    ##  '#,     ,#' ,#      #,     #,   #   #,  ,#        
             '#######'   ##     ##  '#######'  #'      '#     '####' # '####'        



                #########################################################
                #                        -***-                          #
                #          Department of theory and spectroscopy        #
                #                                                       #
                #                      Frank Neese                      #
                #                                                       #
                #     Directorship, Architecture, Infrastructure        #
                #                    SHARK, DRIVERS                     #
                #        Core code/Algorithms in most modules           #
                #                                                       #
                #        Max Planck Institute fuer Kohlenforschung      #
                #                Kaiser Wilhelm Platz 1                 #
                #                 D-45470 Muelheim/Ruhr                 #
                #                      Germany                          #
                #                                                       #
                #                  All rights reserved                  #
                #                        -***-                          #
                #########################################################


                         Program Version 6.0.1  -  RELEASE   -


 With contributions from (in alphabetic order):
[Max-Planck-Institut fuer Kohlenforschung]                               
  Daniel Aravena         : Magnetic Suceptibility                        
  Michael Atanasov       : Ab Initio Ligand Field Theory (pilot matlab implementation)
  Alexander A. Auer      : GIAO ZORA, VPT2 properties, NMR spectrum      
  Ute Becker             : All parallelization in ORCA, NUMFREQ, NUMCALC 
  Giovanni Bistoni       : ED, misc. LED, open-shell LED, HFLD           
  Martin Brehm           : Molecular dynamics                            
  Dmytro Bykov           : pre 5.0 version of the SCF Hessian            
  Marcos Casanova-Páez   : Triplet and SCS-CIS(D). UHF-(DLPNO)-IP/EA/STEOM-CCSD. UHF-CVS-IP/STEOM-CCSD   
  Vijay G. Chilkuri      : MRCI spin determinant printing, contributions to CSF-ICE 
  Pauline Colinet        : FMM embedding                                 
  Dipayan Datta          : RHF DLPNO-CCSD density                        
  Achintya Kumar Dutta   : EOM-CC, STEOM-CC                              
  Nicolas Foglia         : Exact transition moments, OPA infrastructure, MCD improvements    
  Dmitry Ganyushin       : Spin-Orbit,Spin-Spin,Magnetic field MRCI      
  Miquel Garcia-Rates    : C-PCM and meta-GGA Hessian, CCSD/C-PCM, Gaussian charge scheme 
  Tiago L. C. Gouveia    : GS-ROHF, GS-ROCIS                             
  Yang Guo               : DLPNO-NEVPT2, F12-NEVPT2, CIM, IAO-localization        
  Andreas Hansen         : Spin unrestricted coupled pair/coupled cluster methods 
  Ingolf Harden          : AUTO-CI MPn and infrastructure                
  Benjamin Helmich-Paris : MC-RPA, TRAH-(SCF,CASSCF), AVAS, COSX integrals, SCF dyn. polar. 
  Lee Huntington         : MR-EOM, pCC                                   
  Robert Izsak           : Overlap fitted RIJCOSX, COSX-SCS-MP3, EOM     
  Riya Kayal             : Wick's Theorem for AUTO-CI, AUTO-CI UHF-CCSDT 
  Emily Kempfer          : AUTO-CI, RHF CISDT and CCSDT                  
  Christian Kollmar      : KDIIS, OOCD, Brueckner-CCSD(T), CCSD density, CASPT2, CASPT2-K, improved NEVPT2 
  Axel Koslowski         : Symmetry handling                             
  Simone Kossmann        : meta-GGA functionals, TD-DFT gradient, OOMP2, (MP2 Hessian; deprecated post 5.0) 
  Lucas Lang             : DCDCAS                                        
  Marvin Lechner         : AUTO-CI (C++ implementation), FIC-MRCC        
  Spencer Leger          : CASSCF response                               
  Dagmar Lenk            : GEPOL surface, SMD, ORCA-2-JSON               
  Dimitrios Liakos       : Extrapolation schemes; Compound Job, initial MDCI parallelization 
  Dimitrios Manganas     : Further ROCIS development; embedding schemes. LFT, Crystal Embedding 
  Dimitrios Pantazis     : SARC Basis sets                               
  Anastasios Papadopoulos: AUTO-CI, single reference methods and gradients 
  Taras Petrenko         : pre 6.0 DFT Hessian and TD-DFT gradient, (ASA, deprecated), ECA, 1-Electron XAS/XES, NRVS 
  Peter Pinski           : DLPNO-MP2, DLPNO-MP2 Gradient                 
  Christoph Reimann      : Effective Core Potentials                     
  Marius Retegan         : Local ZFS, SOC                                
  Christoph Riplinger    : Optimizer, TS searches, QM/MM, DLPNO-CCSD(T), (RO)-DLPNO pert. Triples 
  Michael Roemelt        : Original ROCIS implementation                 
  Masaaki Saitow         : Open-shell DLPNO-CCSD energy and density      
  Barbara Sandhoefer     : DKH picture change effects                    
  Kantharuban Sivalingam : CASSCF convergence/infrastructure, NEVPT2 and variants, FIC-MRCI 
  Bernardo de Souza      : ESD, SOC TD-DFT                               
  Georgi L. Stoychev     : AutoAux, RI-MP2 NMR, DLPNO-MP2 response, X2C  
  Van Anh Tran           : RI-MP2 g-tensors                              
  Willem Van den Heuvel  : Paramagnetic NMR                              
  Zikuan Wang            : NOTCH, Electric field optimization            
  Frank Wennmohs         : Technical directorship and infrastructure     
  Hang Xu                : AUTO-CI-Response properties                   
                                                                         
[FACCTs GmbH]                                                            
  Markus Bursch, Miquel Garcia-Rates, Christoph Riplinger, Bernardo de Souza, Georgi L. Stoychev 
                                                                 
  APM, Basis sets (HGBS, AHGBS, def-TZVP (Ac-Lr), def2-XVPD (La-Lu)), CI-OPT, improved COSX, DLPNO-Multilevel,           
  DOCKER, DRACO, updates on ESD, GOAT, IRC, LR-CPCM, MBIS, meta-GGA TD-DFT gradient, ML-optimized integration grids, 
  MM, NACMEs, nearIR, NEB, NEB-TS, NL-DFT gradient (VV10), 2- and 3-layer-ONIOM, interface openCOSMO-RS, QMMM,   
  Crystal-QMMM, SF, symmetry and pop. for TD-DFT, r2SCAN hybrids, SOLVATOR                                   
                                                                         
[Other institutions]                                                     
  V. Asgeirsson          : NEB                                           
  Christoph Bannwarth    : sTDA-DFT, sTD-DFT, PBEh-3c, B97-3c, D3        
  Sebastian Ehlert       : rSCAN, r2SCAN, r2SCAN-3c, D4, dhf basis sets  
  Marvin Friede          : D4 for Fr, Ra, Ac-Lr                          
  Lars Goerigk           : TD-DFT with DH, B97 family of functionals     
  Stefan Grimme          : VdW corrections, initial TS optimization, DFT functionals, gCP, sTDA/sTD-DF 
  Waldemar Hujo          : DFT-NL                                        
  H. Jonsson             : NEB                                           
  Holger Kruse           : gCP                                           
  Marcel Mueller         : wB97X-3c, vDZP basis set                      
  Hagen Neugebauer       : wr2SCAN                                       
  Tobias Risthaus        : range-separated hybrid DFT                    
  Lukas Wittmann         : regularized MP2, r2SCAN double-hybrids, wr2SCAN        
                                                                         
We gratefully acknowledge several colleagues who have allowed us to      
interface, adapt or use parts of their codes:                            
  Ed Valeev, F. Pavosevic, A. Kumar             : LibInt (2-el integral package), F12 methods 
  Garnet Chan, S. Sharma, J. Yang, R. Olivares  : DMRG                   
  Ulf Ekstrom                                   : XCFun DFT Library      
  Mihaly Kallay                                 : mrcc  (arbitrary order and MRCC methods)
  Frank Weinhold                                : gennbo (NPA and NBO analysis)           
  Simon Mueller                                 : openCOSMO-RS                            
  Christopher J. Cramer and Donald G. Truhlar   : smd solvation model                     
  S Lehtola, MJT Oliveira, MAL Marques          : LibXC Library                           
  Liviu Ungur et al                             : ANISO software                          


 Your calculation uses the libint2 library for the computation of 2-el integrals
 For citations please refer to: http://libint.valeyev.net

 Your ORCA version has been built with support for libXC version: 6.2.2
 For citations please refer to: https://libxc.gitlab.io

 This ORCA versions uses:
   CBLAS   interface :  Fast vector & matrix operations
   LAPACKE interface :  Fast linear algebra routines
   SCALAPACK package :  Parallel linear algebra routines
   Shared memory     :  Shared parallel matrices
   BLAS/LAPACK       :  OpenBLAS 0.3.27  USE64BITINT DYNAMIC_ARCH NO_AFFINITY Cooperlake SINGLE_THREADED
        Core in use  :  Cooperlake
   Copyright (c) 2011-2014, The OpenBLAS Project


NOTE: MaxCore=3600 MB was set to SCF,MP2,MDCI,CIPSI,MRCI and CIS
      => If you want to overwrite this, your respective input block should be placed after the MaxCore statement
Warning: RI is on but no J-basis has been assigned. Assigning Def2/J (nothing to worry about!)
================================================================================

----- Orbital basis set information -----
Your calculation utilizes the basis: def2-TZVP
   F. Weigend and R. Ahlrichs, Phys. Chem. Chem. Phys. 7, 3297 (2005).

----- AuxJ basis set information -----
Your calculation utilizes the auxiliary basis: def2/J
   F. Weigend, Phys. Chem. Chem. Phys. 8, 1057 (2006).

================================================================================
                                        WARNINGS
                       Please study these warnings very carefully!
================================================================================


WARNING: your system is open-shell and RHF/RKS was chosen
  ===> : WILL SWITCH to UHF/UKS


WARNING: Geometry Optimization
  ===> : Switching off AutoStart
         For restart on a previous wavefunction, please use MOREAD

================================================================================
                                       INPUT FILE
================================================================================
NAME = SAVHIG-S6.inp
|  1> ! PBE0 def2-TZVP  Opt Freq DEFGRID3
|  2> 
|  3> %maxcore 3600
|  4> 
|  5> %pal
|  6>     nprocs 16
|  7> end
|  8> 
|  9> *xyz 0 2
| 10> Fe 10.6869 2.8976 3.2563
| 11> Cl 12.6596 2.3427 2.4128
| 12> Cl 8.8522 1.7399 2.8497
| 13> Cl 10.5613 4.6871 4.5209
| 14> P 10.1112 4.2619 1.0529
| 15> P 11.0599 1.296 5.2983
| 16> C 10.4609 3.3655 -0.4794
| 17> C 10.443 1.9807 -0.4593
| 18> C 10.7425 1.2123 -1.6287
| 19> C 11.0958 1.8782 -2.7533
| 20> C 11.1065 3.193 -2.7937
| 21> C 10.8411 3.9768 -1.6533
| 22> C 10.9164 5.8789 0.8356
| 23> C 12.1575 6.0667 1.4204
| 24> C 12.8246 7.2893 1.2927
| 25> C 12.2471 8.2933 0.5242
| 26> C 11.0204 8.0953 -0.0627
| 27> C 10.3497 6.9034 0.0851
| 28> C 8.3357 4.7093 0.97
| 29> C 7.8192 5.452 2.0028
| 30> C 6.4222 5.8055 1.9827
| 31> C 5.7048 5.3786 0.9499
| 32> C 6.1585 4.6102 -0.0381
| 33> C 7.5197 4.2346 -0.0605
| 34> C 12.3368 1.8014 6.4677
| 35> C 12.2902 1.5709 7.8142
| 36> C 13.3303 1.9158 8.6498
| 37> C 14.4333 2.481 8.1704
| 38> C 14.5499 2.7064 6.8688
| 39> C 13.4864 2.3768 5.995
| 40> C 9.5696 1.1509 6.3087
| 41> C 8.9634 -0.0512 6.5887
| 42> C 7.7475 -0.0854 7.3258
| 43> C 7.2633 1.1099 7.8186
| 44> C 7.8838 2.271 7.6282
| 45> C 9.0244 2.3068 6.8307
| 46> C 11.51 -0.3774 4.8368
| 47> C 12.6148 -1.0279 5.3319
| 48> C 12.9035 -2.3222 4.9488
| 49> C 12.1413 -3.0223 4.0796
| 50> C 11.024 -2.4076 3.6024
| 51> C 10.7209 -1.0928 3.9743
| 52> H 10.1704 1.5248 0.3696
| 53> H 10.7747 0.2151 -1.5772
| 54> H 11.2608 1.4053 -3.5598
| 55> H 11.3827 3.7155 -3.6002
| 56> H 10.8716 4.9705 -1.6757
| 57> H 12.5466 5.3684 1.9804
| 58> H 13.7177 7.3866 1.6489
| 59> H 12.7152 9.1488 0.4257
| 60> H 10.6062 8.7748 -0.6273
| 61> H 9.4512 6.8112 -0.298
| 62> H 8.4344 5.7355 2.704
| 63> H 6.0079 6.3314 2.7197
| 64> H 4.7579 5.6348 0.9678
| 65> H 5.5183 4.4207 -0.7684
| 66> H 7.8712 3.5294 -0.7326
| 67> H 11.4616 1.1321 8.1861
| 68> H 13.2407 1.6973 9.6266
| 69> H 15.1758 2.7371 8.7484
| 70> H 15.3049 3.2391 6.5282
| 71> H 13.5904 2.5186 5.0026
| 72> H 9.3221 -0.8537 6.1586
| 73> H 7.3422 -0.963 7.6193
| 74> H 6.4365 1.1065 8.363
| 75> H 7.5484 3.1435 8.0225
| 76> H 9.4853 3.135 6.647
| 77> H 13.2389 -0.5669 5.9973
| 78> H 13.7303 -2.7474 5.2916
| 79> H 12.3763 -3.9307 3.869
| 80> H 10.4681 -2.9062 2.9146
| 81> H 9.8583 -0.7308 3.6293
| 82> *
| 83> 
| 84>                          ****END OF INPUT****
================================================================================

                       *****************************
                       * Geometry Optimization Run *
                       *****************************

Geometry optimization settings:
Update method            Update   .... BFGS
Choice of coordinates    CoordSys .... (2022) Redundant Internals
Initial Hessian          InHess   .... Almloef's Model
Max. no of cycles        MaxIter  .... 216

Convergence Tolerances:
Energy Change            TolE     ....  5.0000e-06 Eh
Max. Gradient            TolMAXG  ....  3.0000e-04 Eh/bohr
RMS Gradient             TolRMSG  ....  1.0000e-04 Eh/bohr
Max. Displacement        TolMAXD  ....  4.0000e-03 bohr
RMS Displacement         TolRMSD  ....  2.0000e-03 bohr
Strict Convergence                .... False

------------------------------------------------------------------------------
                        ORCA OPTIMIZATION COORDINATE SETUP
------------------------------------------------------------------------------

The optimization will be done in redundant internal coordinates (2022)
Making redundant internal coordinates   ...  (2022 redundants) done
Evaluating the initial hessian          ...  (Almloef) done
Evaluating the coordinates              ...  done
Calculating the B-matrix                .... done
Calculating the G-matrix                .... done
Diagonalizing the G-matrix              .... done
Small eigenvalue found = 1.642e-03
Small eigenvalue found = 2.271e-03
Small eigenvalue found = 2.983e-03
Small eigenvalue found = 3.732e-03
Small eigenvalue found = 4.537e-03
Small eigenvalue found = 4.842e-03
Small eigenvalue found = 7.314e-03
Small eigenvalue found = 9.057e-03
Small eigenvalue found = 1.157e-02
Small eigenvalue found = 1.554e-02
Small eigenvalue found = 1.834e-02
The first mode is                       ....  185
The number of degrees of freedom        ....  210

    -----------------------------------------------------------------
                    Redundant Internal Coordinates


    -----------------------------------------------------------------
         Definition                    Initial Value    Approx d2E/dq
    -----------------------------------------------------------------
      1. B(Cl  1,Fe  0)                  2.2161         0.682217   
      2. B(Cl  2,Fe  0)                  2.2072         0.704814   
      3. B(Cl  3,Fe  0)                  2.1948         0.737560   
      4. B(P   4,Fe  0)                  2.6548         0.203950   
      5. B(P   5,Fe  0)                  2.6218         0.230168   
      6. B(C   6,P   4)                  1.8094         0.449964   
      7. B(C   7,C   6)                  1.3851         0.636235   
      8. B(C   8,C   7)                  1.4310         0.537521   
      9. B(C   9,C   8)                  1.3539         0.713475   
     10. B(C  10,C   9)                  1.3155         0.821591   
     11. B(C  11,C  10)                  1.4090         0.582665   
     12. B(C  11,C   6)                  1.3771         0.655226   
     13. B(C  12,P   4)                  1.8194         0.433646   
     14. B(C  13,C  12)                  1.3848         0.636916   
     15. B(C  14,C  13)                  1.3986         0.605367   
     16. B(C  15,C  14)                  1.3900         0.624784   
     17. B(C  16,C  15)                  1.3742         0.662115   
     18. B(C  17,C  16)                  1.3756         0.658709   
     19. B(C  17,C  12)                  1.3907         0.623231   
     20. B(C  18,P   4)                  1.8329         0.412715   
     21. B(C  19,C  18)                  1.3730         0.665129   
     22. B(C  20,C  19)                  1.4412         0.517723   
     23. B(C  21,C  20)                  1.3280         0.784615   
     24. B(C  22,C  21)                  1.3313         0.775088   
     25. B(C  23,C  22)                  1.4122         0.575764   
     26. B(C  23,C  18)                  1.3975         0.607721   
     27. B(C  24,P   5)                  1.8037         0.459379   
     28. B(C  25,C  24)                  1.3669         0.680179   
     29. B(C  26,C  25)                  1.3780         0.652862   
     30. B(C  27,C  26)                  1.3289         0.782121   
     31. B(C  28,C  27)                  1.3261         0.790085   
     32. B(C  29,C  28)                  1.4153         0.569254   
     33. B(C  29,C  24)                  1.3697         0.673142   
     34. B(C  30,P   5)                  1.8064         0.454934   
     35. B(C  31,C  30)                  1.3751         0.659929   
     36. B(C  32,C  31)                  1.4223         0.554916   
     37. B(C  33,C  32)                  1.3806         0.646760   
     38. B(C  34,C  33)                  1.3302         0.778304   
     39. B(C  35,C  34)                  1.3922         0.619738   
     40. B(C  35,C  30)                  1.3805         0.646942   
     41. B(C  36,P   5)                  1.7933         0.477343   
     42. B(C  37,C  36)                  1.3744         0.661753   
     43. B(C  38,C  37)                  1.3803         0.647378   
     44. B(C  39,C  38)                  1.3515         0.719675   
     45. B(C  40,C  39)                  1.3616         0.693522   
     46. B(C  41,C  40)                  1.3996         0.603147   
     47. B(C  41,C  36)                  1.3705         0.671096   
     48. B(H  42,C   7)                  0.9845         0.530578   
     49. B(H  43,C   8)                  0.9990         0.502957   
     50. B(H  44,C   9)                  0.9494         0.603658   
     51. B(H  45,C  10)                  0.9999         0.501446   
     52. B(H  46,C  11)                  0.9944         0.511581   
     53. B(H  47,C  13)                  0.9760         0.547350   
     54. B(H  48,C  14)                  0.9664         0.566999   
     55. B(H  49,C  15)                  0.9802         0.539109   
     56. B(H  50,C  16)                  0.9757         0.547935   
     57. B(H  51,C  17)                  0.9811         0.537226   
     58. B(H  52,C  19)                  0.9749         0.549516   
     59. B(H  53,C  20)                  0.9957         0.509214   
     60. B(H  54,C  21)                  0.9811         0.537216   
     61. B(H  55,C  22)                  0.9895         0.520918   
     62. B(H  56,C  23)                  1.0357         0.439673   
     63. B(H  57,C  25)                  1.0087         0.485474   
     64. B(H  58,C  26)                  1.0049         0.492184   
     65. B(H  59,C  27)                  0.9752         0.549048   
     66. B(H  60,C  28)                  0.9848         0.530012   
     67. B(H  61,C  29)                  1.0079         0.486937   
     68. B(H  62,C  31)                  0.9786         0.542194   
     69. B(H  63,C  32)                  1.0102         0.482691   
     70. B(H  64,C  33)                  0.9899         0.520071   
     71. B(H  65,C  34)                  1.0145         0.475192   
     72. B(H  66,C  35)                  0.9654         0.569034   
     73. B(H  67,C  37)                  1.0221         0.462043   
     74. B(H  68,C  38)                  0.9909         0.518218   
     75. B(H  69,C  39)                  0.9616         0.577032   
     76. B(H  70,C  40)                  1.0152         0.473927   
     77. B(H  71,C  41)                  0.9971         0.506626   
     78. A(Cl  1,Fe  0,P   5)           90.9653         0.504377   
     79. A(Cl  1,Fe  0,Cl  3)          118.3206         0.619525   
     80. A(Cl  2,Fe  0,P   4)           86.3533         0.496154   
     81. A(P   4,Fe  0,P   5)          172.3975         0.411077   
     82. A(Cl  3,Fe  0,P   5)           93.2935         0.511776   
     83. A(Cl  2,Fe  0,P   5)           86.6362         0.507452   
     84. A(Cl  1,Fe  0,P   4)           90.3327         0.493162   
     85. A(Cl  2,Fe  0,Cl  3)          119.0923         0.623453   
     86. A(Cl  1,Fe  0,Cl  2)          122.5812         0.614100   
     87. A(Cl  3,Fe  0,P   4)           92.6825         0.500361   
     88. A(Fe  0,P   4,C  12)          117.3801         0.418050   
     89. A(C   6,P   4,C  12)          104.6923         0.437403   
     90. A(Fe  0,P   4,C   6)          113.9775         0.420812   
     91. A(Fe  0,P   4,C  18)          111.9039         0.414386   
     92. A(C  12,P   4,C  18)          101.9093         0.430655   
     93. A(C   6,P   4,C  18)          105.6554         0.433524   
     94. A(C  24,P   5,C  30)          104.1181         0.442857   
     95. A(Fe  0,P   5,C  30)          111.5520         0.430869   
     96. A(C  30,P   5,C  36)          106.0257         0.445943   
     97. A(Fe  0,P   5,C  24)          115.7532         0.431622   
     98. A(Fe  0,P   5,C  36)          113.9104         0.434610   
     99. A(C  24,P   5,C  36)          104.5148         0.446730   
    100. A(P   4,C   6,C   7)          118.7209         0.439226   
    101. A(P   4,C   6,C  11)          123.7363         0.441565   
    102. A(C   7,C   6,C  11)          117.3725         0.440459   
    103. A(C   6,C   7,C   8)          121.4879         0.425056   
    104. A(C   8,C   7,H  42)          119.8246         0.367946   
    105. A(C   6,C   7,H  42)          118.6064         0.378797   
    106. A(C   7,C   8,C   9)          117.9907         0.433885   
    107. A(C   7,C   8,H  43)          120.0403         0.364591   
    108. A(C   9,C   8,H  43)          121.6916         0.382833   
    109. A(C   8,C   9,C  10)          121.2809         0.468646   
    110. A(C  10,C   9,H  44)          118.0580         0.405162   
    111. A(C   8,C   9,H  44)          120.3981         0.395225   
    112. A(C  11,C  10,H  45)          114.4675         0.369477   
    113. A(C   9,C  10,H  45)          123.3207         0.392162   
    114. A(C   9,C  10,C  11)          121.9791         0.451635   
    115. A(C  10,C  11,H  46)          122.1317         0.370750   
    116. A(C   6,C  11,H  46)          118.1166         0.378335   
    117. A(C   6,C  11,C  10)          119.6714         0.433532   
    118. A(C  13,C  12,C  17)          119.5521         0.436583   
    119. A(P   4,C  12,C  13)          117.8227         0.436394   
    120. A(P   4,C  12,C  17)          122.6049         0.434690   
    121. A(C  12,C  13,C  14)          120.4964         0.434303   
    122. A(C  14,C  13,H  47)          119.1868         0.377579   
    123. A(C  12,C  13,H  47)          120.1703         0.380916   
    124. A(C  13,C  14,C  15)          118.9285         0.432803   
    125. A(C  15,C  14,H  48)          120.9974         0.381977   
    126. A(C  13,C  14,H  48)          119.6794         0.379891   
    127. A(C  14,C  15,C  16)          120.1935         0.439847   
    128. A(C  16,C  15,H  49)          120.6075         0.382481   
    129. A(C  14,C  15,H  49)          119.1818         0.378652   
    130. A(C  15,C  16,C  17)          120.9429         0.444071   
    131. A(C  17,C  16,H  50)          117.2965         0.383218   
    132. A(C  15,C  16,H  50)          121.7170         0.383562   
    133. A(C  16,C  17,H  51)          119.0770         0.381907   
    134. A(C  12,C  17,H  51)          120.9763         0.378259   
    135. A(C  12,C  17,C  16)          119.8417         0.439240   
    136. A(C  19,C  18,C  23)          121.2493         0.438014   
    137. A(P   4,C  18,C  23)          121.0672         0.428897   
    138. A(P   4,C  18,C  19)          117.5443         0.435913   
    139. A(C  20,C  19,H  52)          123.3926         0.367791   
    140. A(C  18,C  19,H  52)          117.4478         0.384057   
    141. A(C  18,C  19,C  20)          119.1341         0.425580   
    142. A(C  21,C  20,H  53)          121.3771         0.390064   
    143. A(C  19,C  20,H  53)          121.5051         0.363026   
    144. A(C  19,C  20,C  21)          117.1068         0.438404   
    145. A(C  22,C  21,H  54)          119.5487         0.392893   
    146. A(C  20,C  21,H  54)          115.0394         0.393734   
    147. A(C  20,C  21,C  22)          125.3517         0.471820   
    148. A(C  23,C  22,H  55)          124.1228         0.371144   
    149. A(C  21,C  22,H  55)          115.9615         0.390781   
    150. A(C  21,C  22,C  23)          119.5870         0.445921   
    151. A(C  22,C  23,H  56)          121.2332         0.360521   
    152. A(C  18,C  23,H  56)          120.7732         0.363861   
    153. A(C  18,C  23,C  22)          117.4351         0.426800   
    154. A(C  25,C  24,C  29)          116.0667         0.447998   
    155. A(P   5,C  24,C  29)          119.2176         0.445391   
    156. A(P   5,C  24,C  25)          124.5604         0.446231   
    157. A(C  26,C  25,H  57)          120.3533         0.374691   
    158. A(C  24,C  25,H  57)          117.6822         0.377354   
    159. A(C  24,C  25,C  26)          121.9643         0.445521   
    160. A(C  27,C  26,H  58)          121.1405         0.387540   
    161. A(C  25,C  26,H  58)          117.8835         0.375580   
    162. A(C  25,C  26,C  27)          120.9427         0.456970   
    163. A(C  28,C  27,H  59)          118.0455         0.395722   
    164. A(C  26,C  27,H  59)          121.9957         0.395020   
    165. A(C  26,C  27,C  28)          119.9581         0.473207   
    166. A(C  27,C  28,H  60)          119.9221         0.393283   
    167. A(C  29,C  28,H  60)          119.2434         0.371523   
    168. A(C  27,C  28,C  29)          120.0209         0.446551   
    169. A(C  28,C  29,H  61)          119.8417         0.366154   
    170. A(C  24,C  29,H  61)          119.0469         0.376872   
    171. A(C  24,C  29,C  28)          121.0258         0.433820   
    172. A(P   5,C  30,C  35)          118.0387         0.441427   
    173. A(P   5,C  30,C  31)          123.2176         0.443016   
    174. A(C  31,C  30,C  35)          118.7416         0.442361   
    175. A(C  32,C  31,H  62)          121.4269         0.371345   
    176. A(C  30,C  31,H  62)          117.7618         0.382641   
    177. A(C  30,C  31,C  32)          120.2262         0.430300   
    178. A(C  33,C  32,H  63)          120.5109         0.373714   
    179. A(C  31,C  32,H  63)          120.9591         0.364013   
    180. A(C  31,C  32,C  33)          117.6452         0.428746   
    181. A(C  32,C  33,H  64)          119.0940         0.378561   
    182. A(C  32,C  33,C  34)          122.7540         0.455782   
    183. A(C  34,C  33,H  64)          118.1195         0.390953   
    184. A(C  35,C  34,H  65)          118.1237         0.369979   
    185. A(C  33,C  34,C  35)          119.1177         0.452256   
    186. A(C  33,C  34,H  65)          122.7413         0.384848   
    187. A(C  34,C  35,H  66)          121.4779         0.381677   
    188. A(C  30,C  35,H  66)          117.2442         0.384537   
    189. A(C  30,C  35,C  34)          121.2395         0.437371   
    190. A(P   5,C  36,C  37)          123.4171         0.447113   
    191. A(C  37,C  36,C  41)          116.2620         0.445527   
    192. A(P   5,C  36,C  41)          120.3004         0.448251   
    193. A(C  38,C  37,H  67)          118.4162         0.370971   
    194. A(C  36,C  37,H  67)          120.7882         0.372376   
    195. A(C  36,C  37,C  38)          120.7944         0.442636   
    196. A(C  39,C  38,H  68)          118.0841         0.385408   
    197. A(C  37,C  38,H  68)          118.7412         0.378390   
    198. A(C  37,C  38,C  39)          123.1112         0.449416   
    199. A(C  40,C  39,H  69)          123.3830         0.390175   
    200. A(C  38,C  39,H  69)          119.4956         0.392708   
    201. A(C  38,C  39,C  40)          117.0208         0.455076   
    202. A(C  39,C  40,H  70)          117.7126         0.377051   
    203. A(C  39,C  40,C  41)          120.5762         0.440730   
    204. A(C  41,C  40,H  70)          121.5204         0.368090   
    205. A(C  36,C  41,C  40)          122.2010         0.438122   
    206. A(C  40,C  41,H  71)          115.8795         0.372337   
    207. A(C  36,C  41,H  71)          121.7589         0.379266   
    208. D(C  12,P   4,Fe  0,Cl  2)    161.6839         0.001567   
    209. D(C  12,P   4,Fe  0,Cl  3)     42.6876         0.001567   
    210. D(C   6,P   4,Fe  0,Cl  2)    -75.4318         0.001567   
    211. D(C   6,P   4,Fe  0,Cl  3)    165.5719         0.001567   
    212. D(C   6,P   4,Fe  0,P   5)    -52.6381         0.001567   
    213. D(C   6,P   4,Fe  0,Cl  1)     47.1992         0.001567   
    214. D(C  12,P   4,Fe  0,Cl  1)    -75.6851         0.001567   
    215. D(C  30,P   5,Fe  0,Cl  1)   -172.0558         0.001585   
    216. D(C  30,P   5,Fe  0,Cl  3)     69.5050         0.001585   
    217. D(C  24,P   5,Fe  0,Cl  2)   -168.2707         0.001585   
    218. D(C  24,P   5,Fe  0,Cl  1)     69.1470         0.001585   
    219. D(C  30,P   5,Fe  0,Cl  2)    -49.4735         0.001585   
    220. D(C  24,P   5,Fe  0,P   4)    168.9429         0.001585   
    221. D(C  24,P   5,Fe  0,Cl  3)    -49.2922         0.001585   
    222. D(C   7,C   6,P   4,Fe  0)     26.3020         0.004261   
    223. D(C  11,C   6,P   4,C  12)    -19.2591         0.004261   
    224. D(C  11,C   6,P   4,Fe  0)   -148.8243         0.004261   
    225. D(C   7,C   6,P   4,C  12)    155.8673         0.004261   
    226. D(C   7,C   6,P   4,C  18)    -96.9728         0.004261   
    227. D(C   8,C   7,C   6,P   4)   -178.4717         0.028103   
    228. D(H  42,C   7,C   6,P   4)      4.8119         0.028103   
    229. D(C   8,C   7,C   6,C  11)     -3.0350         0.028103   
    230. D(H  42,C   7,C   6,C  11)   -179.7514         0.028103   
    231. D(H  43,C   8,C   7,H  42)     -6.8364         0.019737   
    232. D(C   9,C   8,C   7,H  42)    179.1098         0.019737   
    233. D(C   9,C   8,C   7,C   6)      2.4327         0.019737   
    234. D(H  43,C   8,C   7,C   6)    176.4864         0.019737   
    235. D(H  44,C   9,C   8,H  43)      9.0217         0.035970   
    236. D(H  44,C   9,C   8,C   7)   -177.0282         0.035970   
    237. D(C  10,C   9,C   8,C   7)     -3.0344         0.035970   
    238. D(C  10,C   9,C   8,H  43)   -176.9844         0.035970   
    239. D(H  45,C  10,C   9,H  44)     -7.3681         0.049063   
    240. D(H  45,C  10,C   9,C   8)    178.5018         0.049063   
    241. D(C  11,C  10,C   9,H  44)    178.4832         0.049063   
    242. D(C  11,C  10,C   9,C   8)      4.3532         0.049063   
    243. D(H  46,C  11,C  10,C   9)    178.3890         0.023335   
    244. D(C   6,C  11,C  10,H  45)   -179.5617         0.023335   
    245. D(C   6,C  11,C  10,C   9)     -4.9321         0.023335   
    246. D(H  46,C  11,C   6,C   7)   -179.0600         0.029926   
    247. D(H  46,C  11,C   6,P   4)     -3.8728         0.029926   
    248. D(C  10,C  11,C   6,C   7)      4.1285         0.029926   
    249. D(H  46,C  11,C  10,H  45)      3.7593         0.023335   
    250. D(C  10,C  11,C   6,P   4)    179.3157         0.029926   
    251. D(C  17,C  12,P   4,C   6)     79.3953         0.004058   
    252. D(C  17,C  12,P   4,Fe  0)   -153.0939         0.004058   
    253. D(C  13,C  12,P   4,C  18)    151.1384         0.004058   
    254. D(C  13,C  12,P   4,C   6)    -98.9598         0.004058   
    255. D(C  13,C  12,P   4,Fe  0)     28.5511         0.004058   
    256. D(H  47,C  13,C  12,C  17)    177.3777         0.028167   
    257. D(H  47,C  13,C  12,P   4)     -4.2152         0.028167   
    258. D(C  14,C  13,C  12,P   4)   -179.7779         0.028167   
    259. D(C  14,C  13,C  12,C  17)      1.8151         0.028167   
    260. D(H  48,C  14,C  13,H  47)      8.9263         0.025288   
    261. D(H  48,C  14,C  13,C  12)   -175.4678         0.025288   
    262. D(C  15,C  14,C  13,H  47)   -178.2108         0.025288   
    263. D(C  15,C  14,C  13,C  12)     -2.6048         0.025288   
    264. D(H  49,C  15,C  14,H  48)     -6.6976         0.027037   
    265. D(H  49,C  15,C  14,C  13)   -179.4633         0.027037   
    266. D(C  16,C  15,C  14,H  48)    174.7992         0.027037   
    267. D(C  16,C  15,C  14,C  13)      2.0335         0.027037   
    268. D(H  50,C  16,C  15,C  14)   -178.2202         0.030605   
    269. D(C  17,C  16,C  15,H  49)   -179.1715         0.030605   
    270. D(C  17,C  16,C  15,C  14)     -0.6899         0.030605   
    271. D(H  50,C  16,C  15,H  49)      3.2982         0.030605   
    272. D(H  51,C  17,C  16,H  50)     -6.1812         0.030269   
    273. D(H  51,C  17,C  16,C  15)    176.1828         0.030269   
    274. D(C  12,C  17,C  16,H  50)    177.5074         0.030269   
    275. D(C  12,C  17,C  16,C  15)     -0.1286         0.030269   
    276. D(H  51,C  17,C  12,C  13)   -176.6745         0.026894   
    277. D(H  51,C  17,C  12,P   4)      4.9978         0.026894   
    278. D(C  16,C  17,C  12,C  13)     -0.4346         0.026894   
    279. D(C  16,C  17,C  12,P   4)   -178.7623         0.026894   
    280. D(C  23,C  18,P   4,C   6)      6.7062         0.003810   
    281. D(C  23,C  18,P   4,Fe  0)   -117.8734         0.003810   
    282. D(C  19,C  18,P   4,C  12)    -68.3653         0.003810   
    283. D(C  19,C  18,P   4,C   6)   -177.5308         0.003810   
    284. D(C  19,C  18,P   4,Fe  0)     57.8895         0.003810   
    285. D(H  52,C  19,C  18,C  23)    178.4726         0.030906   
    286. D(H  52,C  19,C  18,P   4)      2.7178         0.030906   
    287. D(C  20,C  19,C  18,C  23)     -3.3005         0.030906   
    288. D(C  20,C  19,C  18,P   4)   -179.0553         0.030906   
    289. D(H  53,C  20,C  19,H  52)     -2.7952         0.018276   
    290. D(H  53,C  20,C  19,C  18)    179.0894         0.018276   
    291. D(C  21,C  20,C  19,H  52)    178.3955         0.018276   
    292. D(C  21,C  20,C  19,C  18)      0.2801         0.018276   
    293. D(H  54,C  21,C  20,H  53)      1.0721         0.044303   
    294. D(H  54,C  21,C  20,C  19)    179.8830         0.044303   
    295. D(C  22,C  21,C  20,H  53)   -176.0761         0.044303   
    296. D(C  22,C  21,C  20,C  19)      2.7349         0.044303   
    297. D(H  55,C  22,C  21,H  54)      6.6739         0.043125   
    298. D(H  55,C  22,C  21,C  20)   -176.2963         0.043125   
    299. D(C  23,C  22,C  21,H  54)   -179.6382         0.043125   
    300. D(C  23,C  22,C  21,C  20)     -2.6084         0.043125   
    301. D(H  56,C  23,C  22,H  55)    -15.9340         0.022760   
    302. D(H  56,C  23,C  22,C  21)    170.9240         0.022760   
    303. D(C  18,C  23,C  22,H  55)    172.5739         0.022760   
    304. D(C  18,C  23,C  22,C  21)     -0.5682         0.022760   
    305. D(H  56,C  23,C  18,C  19)   -168.1053         0.025496   
    306. D(H  56,C  23,C  18,P   4)      7.5001         0.025496   
    307. D(C  22,C  23,C  18,C  19)      3.4281         0.025496   
    308. D(C  22,C  23,C  18,P   4)    179.0335         0.025496   
    309. D(C  29,C  24,P   5,C  30)   -160.9725         0.004382   
    310. D(C  29,C  24,P   5,Fe  0)    -38.1598         0.004382   
    311. D(C  25,C  24,P   5,C  36)    -87.3064         0.004382   
    312. D(C  25,C  24,P   5,C  30)     23.7428         0.004382   
    313. D(C  25,C  24,P   5,Fe  0)    146.5555         0.004382   
    314. D(H  57,C  25,C  24,C  29)   -178.8826         0.032431   
    315. D(H  57,C  25,C  24,P   5)     -3.4636         0.032431   
    316. D(C  26,C  25,C  24,C  29)      0.9553         0.032431   
    317. D(C  26,C  25,C  24,P   5)    176.3743         0.032431   
    318. D(H  58,C  26,C  25,H  57)      1.3340         0.029695   
    319. D(H  58,C  26,C  25,C  24)   -178.4996         0.029695   
    320. D(C  27,C  26,C  25,H  57)    179.2565         0.029695   
    321. D(C  27,C  26,C  25,C  24)     -0.5771         0.029695   
    322. D(H  59,C  27,C  26,H  58)     -2.5954         0.043993   
    323. D(H  59,C  27,C  26,C  25)    179.5501         0.043993   
    324. D(C  28,C  27,C  26,H  58)    177.0856         0.043993   
    325. D(C  28,C  27,C  26,C  25)     -0.7690         0.043993   
    326. D(H  60,C  28,C  27,H  59)     -9.0873         0.044989   
    327. D(H  60,C  28,C  27,C  26)    171.2193         0.044989   
    328. D(C  29,C  28,C  27,H  59)   -178.6823         0.044989   
    329. D(C  29,C  28,C  27,C  26)      1.6243         0.044989   
    330. D(C  24,C  29,C  28,C  27)     -1.2128         0.022227   
    331. D(H  61,C  29,C  24,C  25)    176.5477         0.031712   
    332. D(H  61,C  29,C  24,P   5)      0.8698         0.031712   
    333. D(C  28,C  29,C  24,C  25)     -0.0830         0.031712   
    334. D(C  28,C  29,C  24,P   5)   -175.7609         0.031712   
    335. D(H  61,C  29,C  28,H  60)     12.5175         0.022227   
    336. D(H  61,C  29,C  28,C  27)   -177.8169         0.022227   
    337. D(C  24,C  29,C  28,H  60)   -170.8783         0.022227   
    338. D(C  35,C  30,P   5,C  24)     68.4193         0.004324   
    339. D(C  35,C  30,P   5,Fe  0)    -57.1049         0.004324   
    340. D(C  31,C  30,P   5,C  36)     -1.1024         0.004324   
    341. D(C  31,C  30,P   5,C  24)   -111.0481         0.004324   
    342. D(C  31,C  30,P   5,Fe  0)    123.4277         0.004324   
    343. D(H  62,C  31,C  30,C  35)    175.5974         0.030389   
    344. D(H  62,C  31,C  30,P   5)     -4.9387         0.030389   
    345. D(C  32,C  31,C  30,C  35)      4.2426         0.030389   
    346. D(C  32,C  31,C  30,P   5)   -176.2936         0.030389   
    347. D(H  63,C  32,C  31,H  62)     15.2823         0.021079   
    348. D(H  63,C  32,C  31,C  30)   -173.6854         0.021079   
    349. D(C  33,C  32,C  31,H  62)   -175.4314         0.021079   
    350. D(C  33,C  32,C  31,C  30)     -4.3991         0.021079   
    351. D(H  64,C  33,C  32,H  63)     -8.4292         0.029105   
    352. D(H  64,C  33,C  32,C  31)   -177.7658         0.029105   
    353. D(C  34,C  33,C  32,H  63)    169.4557         0.029105   
    354. D(C  34,C  33,C  32,C  31)      0.1191         0.029105   
    355. D(H  65,C  34,C  33,H  64)      0.4929         0.043520   
    356. D(H  65,C  34,C  33,C  32)   -177.4115         0.043520   
    357. D(C  35,C  34,C  33,H  64)   -177.9660         0.043520   
    358. D(C  35,C  34,C  33,C  32)      4.1296         0.043520   
    359. D(H  66,C  35,C  34,C  33)    178.0411         0.026576   
    360. D(C  30,C  35,C  34,H  65)    177.1940         0.026576   
    361. D(C  30,C  35,C  34,C  33)     -4.2758         0.026576   
    362. D(H  66,C  35,C  30,C  31)    177.8489         0.029122   
    363. D(H  66,C  35,C  30,P   5)     -1.6430         0.029122   
    364. D(C  34,C  35,C  30,C  31)      0.0713         0.029122   
    365. D(H  66,C  35,C  34,H  65)     -0.4891         0.026576   
    366. D(C  34,C  35,C  30,P   5)   -179.4205         0.029122   
    367. D(C  41,C  36,P   5,C  24)    178.1583         0.004620   
    368. D(C  41,C  36,P   5,Fe  0)    -54.5599         0.004620   
    369. D(C  37,C  36,P   5,C  30)   -109.7923         0.004620   
    370. D(C  37,C  36,P   5,C  24)     -0.1278         0.004620   
    371. D(C  37,C  36,P   5,Fe  0)    127.1541         0.004620   
    372. D(H  67,C  37,C  36,C  41)   -178.5673         0.030570   
    373. D(H  67,C  37,C  36,P   5)     -0.2174         0.030570   
    374. D(C  38,C  37,C  36,C  41)      1.0302         0.030570   
    375. D(C  38,C  37,C  36,P   5)    179.3801         0.030570   
    376. D(H  68,C  38,C  37,H  67)     -3.1993         0.029164   
    377. D(H  68,C  38,C  37,C  36)    177.1939         0.029164   
    378. D(C  39,C  38,C  37,H  67)    179.7595         0.029164   
    379. D(C  39,C  38,C  37,C  36)      0.1527         0.029164   
    380. D(H  69,C  39,C  38,H  68)      4.7601         0.036654   
    381. D(H  69,C  39,C  38,C  37)   -178.1804         0.036654   
    382. D(C  40,C  39,C  38,H  68)   -178.7628         0.036654   
    383. D(C  40,C  39,C  38,C  37)     -1.7034         0.036654   
    384. D(H  70,C  40,C  39,H  69)     -6.5770         0.033822   
    385. D(H  70,C  40,C  39,C  38)    177.0954         0.033822   
    386. D(C  41,C  40,C  39,H  69)    178.3669         0.033822   
    387. D(C  41,C  40,C  39,C  38)      2.0394         0.033822   
    388. D(H  71,C  41,C  40,H  70)      8.7614         0.025093   
    389. D(H  71,C  41,C  40,C  39)   -176.3735         0.025093   
    390. D(C  36,C  41,C  40,H  70)   -175.7717         0.025093   
    391. D(C  36,C  41,C  40,C  39)     -0.9065         0.025093   
    392. D(H  71,C  41,C  36,C  37)    174.5422         0.031505   
    393. D(H  71,C  41,C  36,P   5)     -3.8625         0.031505   
    394. D(C  40,C  41,C  36,C  37)     -0.6605         0.031505   
    395. D(C  40,C  41,C  36,P   5)   -179.0653         0.031505   
    -----------------------------------------------------------------

Number of atoms                         .... 72
Number of degrees of freedom            .... 395


         *************************************************************
         *                GEOMETRY OPTIMIZATION CYCLE   1            *
         *************************************************************
---------------------------------
CARTESIAN COORDINATES (ANGSTROEM)
---------------------------------
  Fe    10.686900    2.897600    3.256300
  Cl    12.659600    2.342700    2.412800
  Cl     8.852200    1.739900    2.849700
  Cl    10.561300    4.687100    4.520900
  P     10.111200    4.261900    1.052900
  P     11.059900    1.296000    5.298300
  C     10.460900    3.365500   -0.479400
  C     10.443000    1.980700   -0.459300
  C     10.742500    1.212300   -1.628700
  C     11.095800    1.878200   -2.753300
  C     11.106500    3.193000   -2.793700
  C     10.841100    3.976800   -1.653300
  C     10.916400    5.878900    0.835600
  C     12.157500    6.066700    1.420400
  C     12.824600    7.289300    1.292700
  C     12.247100    8.293300    0.524200
  C     11.020400    8.095300   -0.062700
  C     10.349700    6.903400    0.085100
  C      8.335700    4.709300    0.970000
  C      7.819200    5.452000    2.002800
  C      6.422200    5.805500    1.982700
  C      5.704800    5.378600    0.949900
  C      6.158500    4.610200   -0.038100
  C      7.519700    4.234600   -0.060500
  C     12.336800    1.801400    6.467700
  C     12.290200    1.570900    7.814200
  C     13.330300    1.915800    8.649800
  C     14.433300    2.481000    8.170400
  C     14.549900    2.706400    6.868800
  C     13.486400    2.376800    5.995000
  C      9.569600    1.150900    6.308700
  C      8.963400   -0.051200    6.588700
  C      7.747500   -0.085400    7.325800
  C      7.263300    1.109900    7.818600
  C      7.883800    2.271000    7.628200
  C      9.024400    2.306800    6.830700
  C     11.510000   -0.377400    4.836800
  C     12.614800   -1.027900    5.331900
  C     12.903500   -2.322200    4.948800
  C     12.141300   -3.022300    4.079600
  C     11.024000   -2.407600    3.602400
  C     10.720900   -1.092800    3.974300
  H     10.170400    1.524800    0.369600
  H     10.774700    0.215100   -1.577200
  H     11.260800    1.405300   -3.559800
  H     11.382700    3.715500   -3.600200
  H     10.871600    4.970500   -1.675700
  H     12.546600    5.368400    1.980400
  H     13.717700    7.386600    1.648900
  H     12.715200    9.148800    0.425700
  H     10.606200    8.774800   -0.627300
  H      9.451200    6.811200   -0.298000
  H      8.434400    5.735500    2.704000
  H      6.007900    6.331400    2.719700
  H      4.757900    5.634800    0.967800
  H      5.518300    4.420700   -0.768400
  H      7.871200    3.529400   -0.732600
  H     11.461600    1.132100    8.186100
  H     13.240700    1.697300    9.626600
  H     15.175800    2.737100    8.748400
  H     15.304900    3.239100    6.528200
  H     13.590400    2.518600    5.002600
  H      9.322100   -0.853700    6.158600
  H      7.342200   -0.963000    7.619300
  H      6.436500    1.106500    8.363000
  H      7.548400    3.143500    8.022500
  H      9.485300    3.135000    6.647000
  H     13.238900   -0.566900    5.997300
  H     13.730300   -2.747400    5.291600
  H     12.376300   -3.930700    3.869000
  H     10.468100   -2.906200    2.914600
  H      9.858300   -0.730800    3.629300

----------------------------
CARTESIAN COORDINATES (A.U.)
----------------------------
  NO LB      ZA    FRAG     MASS         X           Y           Z
   0 Fe   26.0000    0    55.850   20.195314    5.475670    6.153515
   1 Cl   17.0000    0    35.453   23.923177    4.427061    4.559531
   2 Cl   17.0000    0    35.453   16.728234    3.287935    5.385153
   3 Cl   17.0000    0    35.453   19.957965    8.857335    8.543263
   4 P    15.0000    0    30.974   19.107399    8.053824    1.989693
   5 P    15.0000    0    30.974   20.900182    2.449085   10.012336
   6 C     6.0000    0    12.011   19.768236    6.359873   -0.905935
   7 C     6.0000    0    12.011   19.734410    3.742981   -0.867951
   8 C     6.0000    0    12.011   20.300383    2.290915   -3.077797
   9 C     6.0000    0    12.011   20.968023    3.549284   -5.202983
  10 C     6.0000    0    12.011   20.988243    6.033896   -5.279328
  11 C     6.0000    0    12.011   20.486710    7.515063   -3.124284
  12 C     6.0000    0    12.011   20.629006   11.109511    1.579055
  13 C     6.0000    0    12.011   22.974345   11.464402    2.684167
  14 C     6.0000    0    12.011   24.234982   13.774781    2.442849
  15 C     6.0000    0    12.011   23.143665   15.672066    0.990594
  16 C     6.0000    0    12.011   20.825538   15.297900   -0.118486
  17 C     6.0000    0    12.011   19.558099   13.045535    0.160816
  18 C     6.0000    0    12.011   15.752190    8.899287    1.833034
  19 C     6.0000    0    12.011   14.776147   10.302787    3.784744
  20 C     6.0000    0    12.011   12.136199   10.970805    3.746760
  21 C     6.0000    0    12.011   10.780510   10.164081    1.795051
  22 C     6.0000    0    12.011   11.637878    8.712015   -0.071999
  23 C     6.0000    0    12.011   14.210174    8.002234   -0.114328
  24 C     6.0000    0    12.011   23.313173    3.404153   12.222182
  25 C     6.0000    0    12.011   23.225112    2.968571   14.766698
  26 C     6.0000    0    12.011   25.190616    3.620337   16.345753
  27 C     6.0000    0    12.011   27.274984    4.688411   15.439818
  28 C     6.0000    0    12.011   27.495326    5.114355   12.980151
  29 C     6.0000    0    12.011   25.485603    4.491501   11.328908
  30 C     6.0000    0    12.011   18.083923    2.174886   11.921715
  31 C     6.0000    0    12.011   16.938371   -0.096754   12.450839
  32 C     6.0000    0    12.011   14.640653   -0.161383   13.843756
  33 C     6.0000    0    12.011   13.725648    2.097407   14.775013
  34 C     6.0000    0    12.011   14.898223    4.291568   14.415209
  35 C     6.0000    0    12.011   17.053645    4.359220   12.908152
  36 C     6.0000    0    12.011   21.750748   -0.713183    9.140227
  37 C     6.0000    0    12.011   23.838517   -1.942449   10.075831
  38 C     6.0000    0    12.011   24.384081   -4.388322    9.351877
  39 C     6.0000    0    12.011   22.943732   -5.711319    7.709327
  40 C     6.0000    0    12.011   20.832341   -4.549705    6.807549
  41 C     6.0000    0    12.011   20.259565   -2.065093    7.510339
  42 H     1.0000    0     1.008   19.219271    2.881454    0.698443
  43 H     1.0000    0     1.008   20.361232    0.406480   -2.980476
  44 H     1.0000    0     1.008   21.279828    2.655632   -6.727047
  45 H     1.0000    0     1.008   21.510186    7.021277   -6.803392
  46 H     1.0000    0     1.008   20.544347    9.392884   -3.166614
  47 H     1.0000    0     1.008   23.709638   10.144806    3.742414
  48 H     1.0000    0     1.008   25.922696   13.958651    3.115969
  49 H     1.0000    0     1.008   24.028246   17.288726    0.804456
  50 H     1.0000    0     1.008   20.042813   16.581969   -1.185425
  51 H     1.0000    0     1.008   17.860180   12.871303   -0.563138
  52 H     1.0000    0     1.008   15.938706   10.838524    5.109819
  53 H     1.0000    0     1.008   11.353286   11.964612    5.139488
  54 H     1.0000    0     1.008    8.991128   10.648229    1.828877
  55 H     1.0000    0     1.008   10.428076    8.353912   -1.452066
  56 H     1.0000    0     1.008   14.874412    6.669599   -1.384413
  57 H     1.0000    0     1.008   21.659285    2.139359   15.469487
  58 H     1.0000    0     1.008   25.021297    3.207432   18.191638
  59 H     1.0000    0     1.008   28.678106    5.172369   16.532080
  60 H     1.0000    0     1.008   28.922070    6.121012   12.336510
  61 H     1.0000    0     1.008   25.682134    4.759464    9.453544
  62 H     1.0000    0     1.008   17.616216   -1.613259   11.638067
  63 H     1.0000    0     1.008   13.874747   -1.819806   14.398390
  64 H     1.0000    0     1.008   12.163222    2.090982   15.803780
  65 H     1.0000    0     1.008   14.264409    5.940354   15.160328
  66 H     1.0000    0     1.008   17.924619    5.924291   12.561010
  67 H     1.0000    0     1.008   25.017895   -1.071286   11.333255
  68 H     1.0000    0     1.008   25.946507   -5.191834    9.999675
  69 H     1.0000    0     1.008   23.387818   -7.427947    7.311350
  70 H     1.0000    0     1.008   19.781842   -5.491922    5.507796
  71 H     1.0000    0     1.008   18.629487   -1.381012    6.858383

--------------------------------
INTERNAL COORDINATES (ANGSTROEM)
--------------------------------
 Fe     0   0   0     0.000000000000     0.00000000     0.00000000
 Cl     1   0   0     2.216066684466     0.00000000     0.00000000
 Cl     1   2   0     2.207196624680   122.58124576     0.00000000
 Cl     1   2   3     2.194834565520   118.32056860   180.88861893
 P      1   2   3     2.654753574251    90.33274120   274.11578408
 P      1   2   3     2.621834388362    90.96529087    86.62466747
 C      5   1   2     1.809355227699   113.97745728    47.19922028
 C      7   5   1     1.385061536539   118.72093127    26.30204194
 C      8   7   5     1.430956033566   121.48786099   181.52831327
 C      9   8   7     1.353871803385   117.99066211     2.43265474
 C     10   9   8     1.315464058802   121.28086305   356.96563408
 C      7   5   1     1.377055169556   123.73630587   211.17572381
 C      5   1   2     1.819410709543   117.38013695   284.31487345
 C     13   5   1     1.384770410574   117.82272722    28.55107372
 C     14  13   5     1.398599463749   120.49635067   180.22212078
 C     15  14  13     1.390005215818   118.92853084   357.39517508
 C     16  15  14     1.374208317541   120.19350899     2.03354052
 C     17  16  15     1.375612205529   120.94286032   359.31009304
 C      5   1   2     1.832877360873   111.90389625   167.01034186
 C     19   5   1     1.372971733139   117.54429699    57.88954859
 C     20  19   5     1.441171488755   119.13413369   180.94469156
 C     21  20  19     1.327999326054   117.10679420     0.28012020
 C     22  21  20     1.331324997887   125.35165473     2.73485849
 C     19   5   1     1.397542965350   121.06716201   242.12659280
 C      6   1   2     1.803718140398   115.75318007    69.14702029
 C     25   6   1     1.366881143333   124.56043007   146.55545617
 C     26  25   6     1.378038961713   121.96425227   176.37430160
 C     27  26  25     1.328865832204   120.94265599   359.42286171
 C     28  27  26     1.326108321367   119.95806933   359.23104628
 C     25   6   1     1.369711871161   119.21760396   321.84022750
 C      6   1   2     1.806365483505   111.55202660   187.94422641
 C     31   6   1     1.375108304825   123.21758621   123.42773179
 C     32  31   6     1.422286490128   120.22620541   183.70642203
 C     33  32  31     1.380595367948   117.64522672   355.60086886
 C     34  33  32     1.330197586827   122.75397413     0.11912664
 C     31   6   1     1.380518688754   118.03872840   302.89513762
 C      6   1   2     1.793276281001   113.91037464   307.93055169
 C     37   6   1     1.374357049678   123.41706183   127.15405990
 C     38  37   6     1.380335390403   120.79444680   179.38005850
 C     39  38  37     1.351516736855   123.11115599     0.15269204
 C     40  39  38     1.361592898043   117.02084376   358.29663971
 C     37   6   1     1.370540849446   120.30035630   305.44011738
 H      8   7   5     0.984495190440   118.60636686     4.81186355
 H      9   8   7     0.999048011859   120.04033482   176.48643706
 H     10   9   8     0.949369085235   120.39808416   182.97176400
 H     11  10   9     0.999867461217   123.32068727   178.50184840
 H     12   7   5     0.994420283381   118.11660151   356.12721583
 H     14  13   5     0.976023411604   120.17025293   355.78480267
 H     15  14  13     0.966422961234   119.67941656   184.53223807
 H     16  15  14     0.980153105387   119.18182714   180.53667450
 H     17  16  15     0.975733083379   121.71696145   181.77978495
 H     18  17  16     0.981105855655   119.07699290   176.18280351
 H     20  19   5     0.974948578131   117.44780001     2.71779389
 H     21  20  19     0.995682831026   121.50514611   179.08944748
 H     22  21  20     0.981110829621   115.03939045   179.88303816
 H     23  22  21     0.989497033851   115.96151988   183.70373927
 H     24  19   5     1.035653272094   120.77318331     7.50011500
 H     26  25   6     1.008678843835   117.68222627   356.53642132
 H     27  26  25     1.004942112761   117.88352967   181.50035868
 H     28  27  26     0.975180731967   121.99572163   179.55011681
 H     29  28  27     0.984785585800   119.92213258   171.21931942
 H     30  25   6     1.007859613240   119.04693976     0.86979204
 H     32  31   6     0.978599994891   117.76177366   355.06130157
 H     33  32  31     1.010243584488   120.95914490   186.31456522
 H     34  33  32     0.989939977978   119.09400815   182.23424377
 H     35  34  33     1.014505741728   122.74131851   182.58848506
 H     36  31   6     0.965447947846   117.24416255   358.35702664
 H     38  37   6     1.022144299989   120.78819631   359.78259809
 H     39  38  37     0.990911257379   118.74117416   177.19385539
 H     40  39  38     0.961648542868   119.49555740   181.81960565
 H     41  40  39     1.015231801117   117.71262100   177.09544044
 H     42  37   6     0.997069586338   121.75892937   356.13746360

---------------------------
INTERNAL COORDINATES (A.U.)
---------------------------
 Fe     0   0   0     0.000000000000     0.00000000     0.00000000
 Cl     1   0   0     4.187759128148     0.00000000     0.00000000
 Cl     1   2   0     4.170997144361   122.58124576     0.00000000
 Cl     1   2   3     4.147636238096   118.32056860   180.88861893
 P      1   2   3     5.016757208384    90.33274120   274.11578408
 P      1   2   3     4.954548962502    90.96529087    86.62466747
 C      5   1   2     3.419185859329   113.97745728    47.19922028
 C      7   5   1     2.617386982687   118.72093127    26.30204194
 C      8   7   5     2.704115013123   121.48786099   181.52831327
 C      9   8   7     2.558446928835   117.99066211     2.43265474
 C     10   9   8     2.485866810152   121.28086305   356.96563408
 C      7   5   1     2.602257141761   123.73630587   211.17572381
 C      5   1   2     3.438187966160   117.38013695   284.31487345
 C     13   5   1     2.616836834342   117.82272722    28.55107372
 C     14  13   5     2.642969957535   120.49635067   180.22212078
 C     15  14  13     2.626729182617   118.92853084   357.39517508
 C     16  15  14     2.596877371110   120.19350899     2.03354052
 C     17  16  15     2.599530334929   120.94286032   359.31009304
 C      5   1   2     3.463636249114   111.90389625   167.01034186
 C     19   5   1     2.594540565249   117.54429699    57.88954859
 C     20  19   5     2.723419425762   119.13413369   180.94469156
 C     21  20  19     2.509555032274   117.10679420     0.28012020
 C     22  21  20     2.515839641251   125.35165473     2.73485849
 C     19   5   1     2.640973464900   121.06716201   242.12659280
 C      6   1   2     3.408533308138   115.75318007    69.14702029
 C     25   6   1     2.583031018521   124.56043007   146.55545617
 C     26  25   6     2.604116239511   121.96425227   176.37430160
 C     27  26  25     2.511192491591   120.94265599   359.42286171
 C     28  27  26     2.505981551299   119.95806933   359.23104628
 C     25   6   1     2.588380318876   119.21760396   321.84022750
 C      6   1   2     3.413536061594   111.55202660   187.94422641
 C     31   6   1     2.598578100601   123.21758621   123.42773179
 C     32  31   6     2.687731950318   120.22620541   183.70642203
 C     33  32  31     2.608947147182   117.64522672   355.60086886
 C     34  33  32     2.513709143106   122.75397413     0.11912664
 C     31   6   1     2.608802244506   118.03872840   302.89513762
 C      6   1   2     3.388801053548   113.91037464   307.93055169
 C     37   6   1     2.597158434116   123.41706183   127.15405990
 C     38  37   6     2.608455860822   120.79444680   179.38005850
 C     39  38  37     2.553996498067   123.11115599     0.15269204
 C     40  39  38     2.573037683193   117.02084376   358.29663971
 C     37   6   1     2.589946860805   120.30035630   305.44011738
 H      8   7   5     1.860426290095   118.60636686     4.81186355
 H      9   8   7     1.887927137053   120.04033482   176.48643706
 H     10   9   8     1.794047571106   120.39808416   182.97176400
 H     11  10   9     1.889475671919   123.32068727   178.50184840
 H     12   7   5     1.879181997607   118.11660151   356.12721583
 H     14  13   5     1.844416948228   120.17025293   355.78480267
 H     15  14  13     1.826274726265   119.67941656   184.53223807
 H     16  15  14     1.852220938494   119.18182714   180.53667450
 H     17  16  15     1.843868307393   121.71696145   181.77978495
 H     18  17  16     1.854021375574   119.07699290   176.18280351
 H     20  19   5     1.842385807324   117.44780001     2.71779389
 H     21  20  19     1.881567866887   121.50514611   179.08944748
 H     22  21  20     1.854030775008   115.03939045   179.88303816
 H     23  22  21     1.869878404306   115.96151988   183.70373927
 H     24  19   5     1.957101053958   120.77318331     7.50011500
 H     26  25   6     1.906126771928   117.68222627   356.53642132
 H     27  26  25     1.899065373562   117.88352967   181.50035868
 H     28  27  26     1.842824514495   121.99572163   179.55011681
 H     29  28  27     1.860975057796   119.92213258   171.21931942
 H     30  25   6     1.904578650463   119.04693976     0.86979204
 H     32  31   6     1.849285985000   117.76177366   355.06130157
 H     33  32  31     1.909083703234   120.95914490   186.31456522
 H     34  33  32     1.870715447399   119.09400815   182.23424377
 H     35  34  33     1.917138013157   122.74131851   182.58848506
 H     36  31   6     1.824432217985   117.24416255   358.35702664
 H     38  37   6     1.931572796328   120.78819631   359.78259809
 H     39  38  37     1.872550899465   118.74117416   177.19385539
 H     40  39  38     1.817252383105   119.49555740   181.81960565
 H     41  40  39     1.918510066559   117.71262100   177.09544044
 H     42  37   6     1.884188454641   121.75892937   356.13746360

---------------------
BASIS SET INFORMATION
---------------------
There are 5 groups of distinct atoms

 Group   1 Type Fe  : 17s11p7d1f contracted to 6s4p4d1f pattern {842111/6311/4111/1}
 Group   2 Type Cl  : 14s9p3d1f contracted to 5s5p2d1f pattern {73211/51111/21/1}
 Group   3 Type P   : 14s9p3d1f contracted to 5s5p2d1f pattern {73211/51111/21/1}
 Group   4 Type C   : 11s6p2d1f contracted to 5s3p2d1f pattern {62111/411/11/1}
 Group   5 Type H   : 5s1p contracted to 3s1p pattern {311/1}

Atom   0Fe   basis set group =>   1
Atom   1Cl   basis set group =>   2
Atom   2Cl   basis set group =>   2
Atom   3Cl   basis set group =>   2
Atom   4P    basis set group =>   3
Atom   5P    basis set group =>   3
Atom   6C    basis set group =>   4
Atom   7C    basis set group =>   4
Atom   8C    basis set group =>   4
Atom   9C    basis set group =>   4
Atom  10C    basis set group =>   4
Atom  11C    basis set group =>   4
Atom  12C    basis set group =>   4
Atom  13C    basis set group =>   4
Atom  14C    basis set group =>   4
Atom  15C    basis set group =>   4
Atom  16C    basis set group =>   4
Atom  17C    basis set group =>   4
Atom  18C    basis set group =>   4
Atom  19C    basis set group =>   4
Atom  20C    basis set group =>   4
Atom  21C    basis set group =>   4
Atom  22C    basis set group =>   4
Atom  23C    basis set group =>   4
Atom  24C    basis set group =>   4
Atom  25C    basis set group =>   4
Atom  26C    basis set group =>   4
Atom  27C    basis set group =>   4
Atom  28C    basis set group =>   4
Atom  29C    basis set group =>   4
Atom  30C    basis set group =>   4
Atom  31C    basis set group =>   4
Atom  32C    basis set group =>   4
Atom  33C    basis set group =>   4
Atom  34C    basis set group =>   4
Atom  35C    basis set group =>   4
Atom  36C    basis set group =>   4
Atom  37C    basis set group =>   4
Atom  38C    basis set group =>   4
Atom  39C    basis set group =>   4
Atom  40C    basis set group =>   4
Atom  41C    basis set group =>   4
Atom  42H    basis set group =>   5
Atom  43H    basis set group =>   5
Atom  44H    basis set group =>   5
Atom  45H    basis set group =>   5
Atom  46H    basis set group =>   5
Atom  47H    basis set group =>   5
Atom  48H    basis set group =>   5
Atom  49H    basis set group =>   5
Atom  50H    basis set group =>   5
Atom  51H    basis set group =>   5
Atom  52H    basis set group =>   5
Atom  53H    basis set group =>   5
Atom  54H    basis set group =>   5
Atom  55H    basis set group =>   5
Atom  56H    basis set group =>   5
Atom  57H    basis set group =>   5
Atom  58H    basis set group =>   5
Atom  59H    basis set group =>   5
Atom  60H    basis set group =>   5
Atom  61H    basis set group =>   5
Atom  62H    basis set group =>   5
Atom  63H    basis set group =>   5
Atom  64H    basis set group =>   5
Atom  65H    basis set group =>   5
Atom  66H    basis set group =>   5
Atom  67H    basis set group =>   5
Atom  68H    basis set group =>   5
Atom  69H    basis set group =>   5
Atom  70H    basis set group =>   5
Atom  71H    basis set group =>   5
---------------------------------
AUXILIARY/J BASIS SET INFORMATION
---------------------------------
There are 5 groups of distinct atoms

 Group   1 Type Fe  : 19s5p5d3f3g contracted to 8s5p5d2f3g pattern {121111111/11111/11111/21/111}
 Group   2 Type Cl  : 14s5p5d2f1g contracted to 8s4p3d1f1g pattern {71111111/2111/311/2/1}
 Group   3 Type P   : 14s5p5d2f1g contracted to 8s4p3d1f1g pattern {71111111/2111/311/2/1}
 Group   4 Type C   : 12s5p4d2f1g contracted to 6s4p3d1f1g pattern {711111/2111/211/2/1}
 Group   5 Type H   : 5s2p1d contracted to 3s1p1d pattern {311/2/1}

Atom   0Fe   basis set group =>   1
Atom   1Cl   basis set group =>   2
Atom   2Cl   basis set group =>   2
Atom   3Cl   basis set group =>   2
Atom   4P    basis set group =>   3
Atom   5P    basis set group =>   3
Atom   6C    basis set group =>   4
Atom   7C    basis set group =>   4
Atom   8C    basis set group =>   4
Atom   9C    basis set group =>   4
Atom  10C    basis set group =>   4
Atom  11C    basis set group =>   4
Atom  12C    basis set group =>   4
Atom  13C    basis set group =>   4
Atom  14C    basis set group =>   4
Atom  15C    basis set group =>   4
Atom  16C    basis set group =>   4
Atom  17C    basis set group =>   4
Atom  18C    basis set group =>   4
Atom  19C    basis set group =>   4
Atom  20C    basis set group =>   4
Atom  21C    basis set group =>   4
Atom  22C    basis set group =>   4
Atom  23C    basis set group =>   4
Atom  24C    basis set group =>   4
Atom  25C    basis set group =>   4
Atom  26C    basis set group =>   4
Atom  27C    basis set group =>   4
Atom  28C    basis set group =>   4
Atom  29C    basis set group =>   4
Atom  30C    basis set group =>   4
Atom  31C    basis set group =>   4
Atom  32C    basis set group =>   4
Atom  33C    basis set group =>   4
Atom  34C    basis set group =>   4
Atom  35C    basis set group =>   4
Atom  36C    basis set group =>   4
Atom  37C    basis set group =>   4
Atom  38C    basis set group =>   4
Atom  39C    basis set group =>   4
Atom  40C    basis set group =>   4
Atom  41C    basis set group =>   4
Atom  42H    basis set group =>   5
Atom  43H    basis set group =>   5
Atom  44H    basis set group =>   5
Atom  45H    basis set group =>   5
Atom  46H    basis set group =>   5
Atom  47H    basis set group =>   5
Atom  48H    basis set group =>   5
Atom  49H    basis set group =>   5
Atom  50H    basis set group =>   5
Atom  51H    basis set group =>   5
Atom  52H    basis set group =>   5
Atom  53H    basis set group =>   5
Atom  54H    basis set group =>   5
Atom  55H    basis set group =>   5
Atom  56H    basis set group =>   5
Atom  57H    basis set group =>   5
Atom  58H    basis set group =>   5
Atom  59H    basis set group =>   5
Atom  60H    basis set group =>   5
Atom  61H    basis set group =>   5
Atom  62H    basis set group =>   5
Atom  63H    basis set group =>   5
Atom  64H    basis set group =>   5
Atom  65H    basis set group =>   5
Atom  66H    basis set group =>   5
Atom  67H    basis set group =>   5
Atom  68H    basis set group =>   5
Atom  69H    basis set group =>   5
Atom  70H    basis set group =>   5
Atom  71H    basis set group =>   5


           ************************************************************
           *        Program running with 16 parallel MPI-processes    *
           *              working on a common directory               *
           ************************************************************
------------------------------------------------------------------------------
                             ORCA STARTUP CALCULATIONS
                           -- RI-GTO INTEGRALS CHOSEN --
------------------------------------------------------------------------------
------------------------------------------------------------------------------
                   ___                                                        
                  /   \      - P O W E R E D   B Y -                         
                 /     \                                                     
                 |  |  |   _    _      __       _____    __    __             
                 |  |  |  | |  | |    /  \     |  _  \  |  |  /  |          
                  \  \/   | |  | |   /    \    | | | |  |  | /  /          
                 / \  \   | |__| |  /  /\  \   | |_| |  |  |/  /          
                |  |  |   |  __  | /  /__\  \  |    /   |      \           
                |  |  |   | |  | | |   __   |  |    \   |  |\   \          
                \     /   | |  | | |  |  |  |  | |\  \  |  | \   \       
                 \___/    |_|  |_| |__|  |__|  |_| \__\ |__|  \__/        
                                                                              
                      - O R C A' S   B I G   F R I E N D -                    
                                      &                                       
                       - I N T E G R A L  F E E D E R -                       
                                                                              
 v1 FN, 2020, v2 2021, v3 2022-2024                                           
------------------------------------------------------------------------------


----------------------
SHARK INTEGRAL PACKAGE
----------------------

Number of atoms                             ...     72
Number of basis functions                   ...   1526
Number of shells                            ...    596
Maximum angular momentum                    ...      3
Integral batch strategy                     ... SHARK/LIBINT Hybrid
RI-J (if used) integral strategy            ... SPLIT-RIJ (Revised 2003 algorithm where possible)
Printlevel                                  ...      1
Contraction scheme used                     ... SEGMENTED contraction
Prescreening option                         ... SCHWARTZ
   Thresh                                   ... 2.500e-11
   Tcut                                     ... 2.500e-12
   Tpresel                                  ... 2.500e-12 
Coulomb Range Separation                    ... NOT USED
Exchange Range Separation                   ... NOT USED
Multipole approximations                    ... NOT USED
Finite Nucleus Model                        ... NOT USED
CABS basis                                  ... NOT available
Auxiliary Coulomb fitting basis             ... AVAILABLE
   # of basis functions in Aux-J            ...   2438
   # of shells in Aux-J                     ...    798
   Maximum angular momentum in Aux-J        ...      4
Auxiliary J/K fitting basis                 ... NOT available
Auxiliary Correlation fitting basis         ... NOT available
Auxiliary 'external' fitting basis          ... NOT available

Checking pre-screening integrals            ... done (  0.0 sec) Dimension = 596
Check shell pair data                       ... done (  0.0 sec)
Shell pair information
Shell pair cut-off parameter TPreSel        ...   2.5e-12
Total number of shell pairs                 ...    177906
Shell pairs after pre-screening             ...     93003
Total number of primitive shell pairs       ...    575177
Primitive shell pairs kept                  ...    181649
          la=0 lb=0:  22643 shell pairs
          la=1 lb=0:  27898 shell pairs
          la=1 lb=1:   8611 shell pairs
          la=2 lb=0:  12861 shell pairs
          la=2 lb=1:   8054 shell pairs
          la=2 lb=2:   1908 shell pairs
          la=3 lb=0:   5605 shell pairs
          la=3 lb=1:   3522 shell pairs
          la=3 lb=2:   1559 shell pairs
          la=3 lb=3:    342 shell pairs

Calculating one electron integrals          ... done (  0.1 sec)
done (  0.4 sec)
Calculating Nuclear repulsion               ... done (  0.0 sec) ENN=   6863.195100014840 Eh

Diagonalization of the overlap matrix:
Smallest eigenvalue                        ... 6.711e-06
Time for diagonalization                   ...    0.269 sec
Threshold for overlap eigenvalues          ... 1.000e-07
Number of eigenvalues below threshold      ... 0
Time for construction of square roots      ...    0.293 sec
Total time needed                          ...    0.600 sec

-------------------
DFT GRID GENERATION
-------------------

General Integration Accuracy     IntAcc      ... 4.959
Radial Grid Type                 RadialGrid  ... OptM3 with GC (2021)
Angular Grid (max. ang.)         AngularGrid ... 6 (Lebedev-590)
Angular grid pruning method      GridPruning ... 4 (adaptive)
Weight generation scheme         WeightScheme... mBecke (2022)
Basis function cutoff            BFCut       ... 1.0000e-11
Integration weight cutoff        WCut        ... 1.0000e-14
Partially contracted basis set               ... off
Rotationally invariant grid construction     ... off
Angular grids for H and He will be reduced by one unit
Core-polarized basis detected: some atoms will have their core
                               angular grid increased.

Total number of grid points                  ...   865143
Total number of batches                      ...    13557
Average number of points per batch           ...       63
Average number of grid points per atom       ...    12016

--------------------
COSX GRID GENERATION
--------------------

GRIDX 1
-------
General Integration Accuracy     IntAcc      ... 4.020
Radial Grid Type                 RadialGrid  ... OptM3 with GC (2021)
Angular Grid (max. ang.)         AngularGrid ... 2 (Lebedev-110)
Angular grid pruning method      GridPruning ... 4 (adaptive)
Weight generation scheme         WeightScheme... mBecke (2022)
Basis function cutoff            BFCut       ... 1.0000e-11
Integration weight cutoff        WCut        ... 1.0000e-14
Partially contracted basis set               ... on
Rotationally invariant grid construction     ... off
Angular grids for H and He will be reduced by one unit
Core-polarized basis detected: some atoms will have their core
                               angular grid increased.

Total number of grid points                  ...    98659
Total number of batches                      ...      808
Average number of points per batch           ...      122
Average number of grid points per atom       ...     1370
UseSFitting                                  ... on

GRIDX 2
-------
General Integration Accuracy     IntAcc      ... 4.338
Radial Grid Type                 RadialGrid  ... OptM3 with GC (2021)
Angular Grid (max. ang.)         AngularGrid ... 3 (Lebedev-194)
Angular grid pruning method      GridPruning ... 4 (adaptive)
Weight generation scheme         WeightScheme... mBecke (2022)
Basis function cutoff            BFCut       ... 1.0000e-11
Integration weight cutoff        WCut        ... 1.0000e-14
Partially contracted basis set               ... on
Rotationally invariant grid construction     ... off
Angular grids for H and He will be reduced by one unit
Core-polarized basis detected: some atoms will have their core
                               angular grid increased.

Total number of grid points                  ...   211033
Total number of batches                      ...     1687
Average number of points per batch           ...      125
Average number of grid points per atom       ...     2931
UseSFitting                                  ... on

GRIDX 3
-------
General Integration Accuracy     IntAcc      ... 4.871
Radial Grid Type                 RadialGrid  ... OptM3 with GC (2021)
Angular Grid (max. ang.)         AngularGrid ... 4 (Lebedev-302)
Angular grid pruning method      GridPruning ... 4 (adaptive)
Weight generation scheme         WeightScheme... mBecke (2022)
Basis function cutoff            BFCut       ... 1.0000e-11
Integration weight cutoff        WCut        ... 1.0000e-14
Partially contracted basis set               ... on
Rotationally invariant grid construction     ... off
Angular grids for H and He will be reduced by one unit
Core-polarized basis detected: some atoms will have their core
                               angular grid increased.

Total number of grid points                  ...   390930
Total number of batches                      ...     3087
Average number of points per batch           ...      126
Average number of grid points per atom       ...     5430
UseSFitting                                  ... on
Initializing property integral containers    ... done (  0.0 sec)

SHARK setup successfully completed in  16.8 seconds

Maximum memory used throughout the entire STARTUP-calculation: 294.9 MB


           ************************************************************
           *        Program running with 16 parallel MPI-processes    *
           *              working on a common directory               *
           ************************************************************
-------------------------------------------------------------------------------
                                 ORCA GUESS
                   Start orbitals & Density for SCF / CASSCF
-------------------------------------------------------------------------------

------------
SCF SETTINGS
------------
Hamiltonian:
 Density Functional     Method          .... DFT(GTOs)
 Exchange Functional    Exchange        .... PBE
   PBE kappa parameter   XKappa         ....  0.804000
   PBE mue parameter    XMuePBE         ....  0.219520
 Correlation Functional Correlation     .... PBE
   PBE beta parameter  CBetaPBE         ....  0.066725
 LDA part of GGA corr.  LDAOpt          .... PW91-LDA
 Gradients option       PostSCFGGA      .... off
 Hybrid DFT is turned on
   Fraction HF Exchange ScalHFX         ....  0.250000
   Scaling of DF-GGA-X  ScalDFX         ....  0.750000
   Scaling of DF-GGA-C  ScalDFC         ....  1.000000
   Scaling of DF-LDA-C  ScalLDAC        ....  1.000000
   Perturbative correction              ....  0.000000
   NL short-range parameter             ....  6.900000
 RI-approximation to the Coulomb term is turned on
   Number of AuxJ basis functions       .... 2438
[...]
  (1) The electronic state is orbitally nondegenerate
      but the spin degeneracy is treated
  (2) There are no thermally accessible electronically excited states
  (3) Hindered rotations indicated by low frequency modes are not
      treated as such but are treated as vibrations and this may
      cause some error
  (4) All equations used are the standard statistical mechanics
      equations for an ideal gas
  (5) All vibrations are strictly harmonic

freq.      15.74  E(vib)   ...       0.57 
freq.      16.73  E(vib)   ...       0.57 
freq.      19.69  E(vib)   ...       0.56 
freq.      22.52  E(vib)   ...       0.56 
freq.      23.42  E(vib)   ...       0.56 
freq.      30.84  E(vib)   ...       0.55 
freq.      35.86  E(vib)   ...       0.54 
freq.      41.44  E(vib)   ...       0.54 
freq.      45.22  E(vib)   ...       0.53 
freq.      48.27  E(vib)   ...       0.53 
freq.      51.72  E(vib)   ...       0.52 
freq.      52.57  E(vib)   ...       0.52 
freq.      55.59  E(vib)   ...       0.52 
freq.      59.65  E(vib)   ...       0.51 
freq.      67.80  E(vib)   ...       0.50 
freq.      70.61  E(vib)   ...       0.50 
freq.      79.30  E(vib)   ...       0.49 
freq.      79.78  E(vib)   ...       0.49 
freq.      84.73  E(vib)   ...       0.48 
freq.     100.56  E(vib)   ...       0.46 
freq.     117.45  E(vib)   ...       0.44 
freq.     119.00  E(vib)   ...       0.44 
freq.     122.87  E(vib)   ...       0.43 
freq.     123.83  E(vib)   ...       0.43 
freq.     128.22  E(vib)   ...       0.43 
freq.     130.04  E(vib)   ...       0.43 
freq.     192.24  E(vib)   ...       0.36 
freq.     194.04  E(vib)   ...       0.36 
freq.     213.34  E(vib)   ...       0.34 
freq.     218.08  E(vib)   ...       0.33 
freq.     220.05  E(vib)   ...       0.33 
freq.     225.34  E(vib)   ...       0.33 
freq.     248.46  E(vib)   ...       0.31 
freq.     250.36  E(vib)   ...       0.30 
freq.     253.91  E(vib)   ...       0.30 
freq.     261.39  E(vib)   ...       0.30 
freq.     262.75  E(vib)   ...       0.29 
freq.     268.12  E(vib)   ...       0.29 
freq.     269.72  E(vib)   ...       0.29 
freq.     287.04  E(vib)   ...       0.27 
freq.     349.74  E(vib)   ...       0.23 
freq.     364.50  E(vib)   ...       0.22 
freq.     403.63  E(vib)   ...       0.19 
freq.     404.10  E(vib)   ...       0.19 
freq.     404.20  E(vib)   ...       0.19 
freq.     404.76  E(vib)   ...       0.19 
freq.     409.04  E(vib)   ...       0.19 
freq.     409.69  E(vib)   ...       0.19 
freq.     428.28  E(vib)   ...       0.18 
freq.     432.30  E(vib)   ...       0.18 
freq.     448.53  E(vib)   ...       0.17 
freq.     451.76  E(vib)   ...       0.16 
freq.     453.10  E(vib)   ...       0.16 
freq.     456.98  E(vib)   ...       0.16 
freq.     509.23  E(vib)   ...       0.14 
freq.     514.03  E(vib)   ...       0.13 
freq.     514.70  E(vib)   ...       0.13 
freq.     518.04  E(vib)   ...       0.13 
freq.     531.22  E(vib)   ...       0.13 
freq.     532.38  E(vib)   ...       0.13 
freq.     628.17  E(vib)   ...       0.09 
freq.     628.35  E(vib)   ...       0.09 
freq.     628.54  E(vib)   ...       0.09 
freq.     628.67  E(vib)   ...       0.09 
freq.     628.73  E(vib)   ...       0.09 
freq.     629.21  E(vib)   ...       0.09 
freq.     700.95  E(vib)   ...       0.07 
freq.     701.23  E(vib)   ...       0.07 
freq.     709.50  E(vib)   ...       0.07 
freq.     710.22  E(vib)   ...       0.07 
freq.     710.78  E(vib)   ...       0.07 
freq.     711.27  E(vib)   ...       0.07 
freq.     711.48  E(vib)   ...       0.07 
freq.     711.86  E(vib)   ...       0.07 
freq.     722.25  E(vib)   ...       0.07 
freq.     722.73  E(vib)   ...       0.07 
freq.     723.24  E(vib)   ...       0.07 
freq.     724.21  E(vib)   ...       0.06 
freq.     763.49  E(vib)   ...       0.06 
freq.     764.09  E(vib)   ...       0.06 
freq.     765.00  E(vib)   ...       0.06 
freq.     765.27  E(vib)   ...       0.06 
freq.     766.23  E(vib)   ...       0.06 
freq.     767.14  E(vib)   ...       0.06 
freq.     867.13  E(vib)   ...       0.04 
freq.     867.33  E(vib)   ...       0.04 
freq.     868.77  E(vib)   ...       0.04 
freq.     868.96  E(vib)   ...       0.04 
freq.     870.48  E(vib)   ...       0.04 
freq.     872.04  E(vib)   ...       0.04 
freq.     947.53  E(vib)   ...       0.03 
freq.     948.69  E(vib)   ...       0.03 
freq.     948.89  E(vib)   ...       0.03 
freq.     949.79  E(vib)   ...       0.03 
freq.     950.31  E(vib)   ...       0.03 
freq.     951.85  E(vib)   ...       0.03 
freq.     985.53  E(vib)   ...       0.02 
freq.     985.76  E(vib)   ...       0.02 
freq.     986.04  E(vib)   ...       0.02 
freq.     986.69  E(vib)   ...       0.02 
freq.     987.22  E(vib)   ...       0.02 
freq.     987.77  E(vib)   ...       0.02 
freq.     993.98  E(vib)   ...       0.02 
freq.     995.25  E(vib)   ...       0.02 
freq.     996.14  E(vib)   ...       0.02 
freq.     996.83  E(vib)   ...       0.02 
freq.     997.38  E(vib)   ...       0.02 
freq.     999.99  E(vib)   ...       0.02 
freq.    1020.93  E(vib)   ...       0.02 
freq.    1021.09  E(vib)   ...       0.02 
freq.    1021.20  E(vib)   ...       0.02 
freq.    1021.38  E(vib)   ...       0.02 
freq.    1021.62  E(vib)   ...       0.02 
freq.    1021.91  E(vib)   ...       0.02 
freq.    1059.71  E(vib)   ...       0.02 
freq.    1059.91  E(vib)   ...       0.02 
freq.    1060.14  E(vib)   ...       0.02 
freq.    1060.30  E(vib)   ...       0.02 
freq.    1060.32  E(vib)   ...       0.02 
freq.    1060.49  E(vib)   ...       0.02 
freq.    1111.55  E(vib)   ...       0.01 
freq.    1112.27  E(vib)   ...       0.01 
freq.    1112.36  E(vib)   ...       0.01 
freq.    1112.50  E(vib)   ...       0.01 
freq.    1112.90  E(vib)   ...       0.01 
freq.    1113.28  E(vib)   ...       0.01 
freq.    1127.38  E(vib)   ...       0.01 
freq.    1128.06  E(vib)   ...       0.01 
freq.    1128.62  E(vib)   ...       0.01 
freq.    1129.12  E(vib)   ...       0.01 
freq.    1129.68  E(vib)   ...       0.01 
freq.    1130.30  E(vib)   ...       0.01 
freq.    1181.80  E(vib)   ...       0.01 
freq.    1182.01  E(vib)   ...       0.01 
freq.    1182.04  E(vib)   ...       0.01 
freq.    1182.07  E(vib)   ...       0.01 
freq.    1182.26  E(vib)   ...       0.01 
freq.    1182.34  E(vib)   ...       0.01 
freq.    1212.89  E(vib)   ...       0.01 
freq.    1213.33  E(vib)   ...       0.01 
freq.    1214.10  E(vib)   ...       0.01 
freq.    1214.57  E(vib)   ...       0.01 
freq.    1214.70  E(vib)   ...       0.01 
freq.    1216.49  E(vib)   ...       0.01 
freq.    1331.63  E(vib)   ...       0.01 
freq.    1332.48  E(vib)   ...       0.01 
freq.    1336.11  E(vib)   ...       0.01 
freq.    1336.91  E(vib)   ...       0.01 
freq.    1338.48  E(vib)   ...       0.01 
freq.    1338.83  E(vib)   ...       0.01 
freq.    1366.67  E(vib)   ...       0.01 
freq.    1367.38  E(vib)   ...       0.01 
freq.    1367.46  E(vib)   ...       0.01 
freq.    1367.82  E(vib)   ...       0.01 
freq.    1367.99  E(vib)   ...       0.01 
freq.    1368.23  E(vib)   ...       0.01 
freq.    1473.42  E(vib)   ...       0.00 
freq.    1474.10  E(vib)   ...       0.00 
freq.    1475.43  E(vib)   ...       0.00 
freq.    1476.03  E(vib)   ...       0.00 
freq.    1477.02  E(vib)   ...       0.00 
freq.    1477.29  E(vib)   ...       0.00 
freq.    1523.34  E(vib)   ...       0.00 
freq.    1523.65  E(vib)   ...       0.00 
freq.    1524.28  E(vib)   ...       0.00 
freq.    1524.56  E(vib)   ...       0.00 
freq.    1524.61  E(vib)   ...       0.00 
freq.    1524.86  E(vib)   ...       0.00 
freq.    1637.58  E(vib)   ...       0.00 
freq.    1638.15  E(vib)   ...       0.00 
freq.    1638.77  E(vib)   ...       0.00 
freq.    1639.16  E(vib)   ...       0.00 
freq.    1639.93  E(vib)   ...       0.00 
freq.    1640.11  E(vib)   ...       0.00 
freq.    1654.64  E(vib)   ...       0.00 
freq.    1655.00  E(vib)   ...       0.00 
freq.    1655.07  E(vib)   ...       0.00 
freq.    1655.33  E(vib)   ...       0.00 
freq.    1655.63  E(vib)   ...       0.00 
freq.    1655.93  E(vib)   ...       0.00 
freq.    3185.57  E(vib)   ...       0.00 
freq.    3185.64  E(vib)   ...       0.00 
freq.    3185.73  E(vib)   ...       0.00 
freq.    3185.86  E(vib)   ...       0.00 
freq.    3185.94  E(vib)   ...       0.00 
freq.    3186.04  E(vib)   ...       0.00 
freq.    3193.95  E(vib)   ...       0.00 
freq.    3194.97  E(vib)   ...       0.00 
freq.    3195.44  E(vib)   ...       0.00 
freq.    3195.84  E(vib)   ...       0.00 
freq.    3196.59  E(vib)   ...       0.00 
freq.    3196.97  E(vib)   ...       0.00 
freq.    3201.69  E(vib)   ...       0.00 
freq.    3202.92  E(vib)   ...       0.00 
freq.    3202.97  E(vib)   ...       0.00 
freq.    3204.34  E(vib)   ...       0.00 
freq.    3205.00  E(vib)   ...       0.00 
freq.    3206.61  E(vib)   ...       0.00 
freq.    3210.17  E(vib)   ...       0.00 
freq.    3210.53  E(vib)   ...       0.00 
freq.    3210.80  E(vib)   ...       0.00 
freq.    3211.48  E(vib)   ...       0.00 
freq.    3211.93  E(vib)   ...       0.00 
freq.    3214.64  E(vib)   ...       0.00 
freq.    3215.53  E(vib)   ...       0.00 
freq.    3215.94  E(vib)   ...       0.00 
freq.    3215.99  E(vib)   ...       0.00 
freq.    3216.62  E(vib)   ...       0.00 
freq.    3217.23  E(vib)   ...       0.00 
freq.    3218.20  E(vib)   ...       0.00 

------------
INNER ENERGY
------------

The inner energy is: U= E(el) + E(ZPE) + E(vib) + E(rot) + E(trans)
    E(el)   - is the total energy from the electronic structure calculation
              = E(kin-el) + E(nuc-el) + E(el-el) + E(nuc-nuc)
    E(ZPE)  - the the zero temperature vibrational energy from the frequency calculation
    E(vib)  - the the finite temperature correction to E(ZPE) due to population
              of excited vibrational states
    E(rot)  - is the rotational thermal energy
    E(trans)- is the translational thermal energy

Summary of contributions to the inner energy U:
Electronic energy                ...  -4715.03028501 Eh
Zero point energy                ...      0.55624227 Eh     349.05 kcal/mol
Thermal vibrational correction   ...      0.03811648 Eh      23.92 kcal/mol
Thermal rotational correction    ...      0.00141627 Eh       0.89 kcal/mol
Thermal translational correction ...      0.00141627 Eh       0.89 kcal/mol
-----------------------------------------------------------------------
Total thermal energy                  -4714.43309372 Eh


Summary of corrections to the electronic energy:
(perhaps to be used in another calculation)
Total thermal correction                  0.04094903 Eh      25.70 kcal/mol
Non-thermal (ZPE) correction              0.55624227 Eh     349.05 kcal/mol
-----------------------------------------------------------------------
Total correction                          0.59719129 Eh     374.74 kcal/mol


--------
ENTHALPY
--------

The enthalpy is H = U + kB*T
                kB is Boltzmann's constant
Total thermal energy              ...  -4714.43309372 Eh 
Thermal Enthalpy correction       ...      0.00094421 Eh       0.59 kcal/mol
-----------------------------------------------------------------------
Total Enthalpy                    ...  -4714.43214951 Eh


Note: Only C1 symmetry has been detected, increase convergence thresholds 
      if your molecule has a higher symmetry. Symmetry factor of 1.0 is   
      used for the rotational entropy correction. 
 

Note: Rotational entropy computed according to Herzberg 
Infrared and Raman Spectra, Chapter V,1, Van Nostrand Reinhold, 1945 
Point Group:  C1, Symmetry Number:   1  
Rotational constants in cm-1:     0.003152     0.001769     0.001765 

Vibrational entropy computed according to the QRRHO of S. Grimme
Chem.Eur.J. 2012 18 9955 using a reference frequency of 100.0 cm-1


-------
ENTROPY
-------

The entropy contributions are T*S = T*(S(el)+S(vib)+S(rot)+S(trans))
     S(el)   - electronic entropy
     S(vib)  - vibrational entropy
     S(rot)  - rotational entropy
     S(trans)- translational entropy
The entropies will be listed as multiplied by the temperature to get
units of energy

Electronic entropy                ...      0.00065446 Eh      0.41 kcal/mol
Vibrational entropy               ...      0.07024382 Eh     44.08 kcal/mol
Rotational entropy                ...      0.01821472 Eh     11.43 kcal/mol
Translational entropy             ...      0.02160020 Eh     13.55 kcal/mol
-----------------------------------------------------------------------
Final entropy term                ...      0.11071320 Eh     69.47 kcal/mol

In case the symmetry of your molecule has not been determined correctly
or in case you have a reason to use a different symmetry number we print 
out the resulting rotational entropy values for sn=1,12:

 non-linear molecules -----------------------------------
|  sn= 1 | S(rot)=       0.01821472 Eh     11.43 kcal/mol|
|  sn= 2 | S(rot)=       0.01756026 Eh     11.02 kcal/mol|
|  sn= 3 | S(rot)=       0.01717743 Eh     10.78 kcal/mol|
|  sn= 4 | S(rot)=       0.01690580 Eh     10.61 kcal/mol|
|  sn= 5 | S(rot)=       0.01669512 Eh     10.48 kcal/mol|
|  sn= 6 | S(rot)=       0.01652297 Eh     10.37 kcal/mol|
|  sn= 7 | S(rot)=       0.01637742 Eh     10.28 kcal/mol|
|  sn= 8 | S(rot)=       0.01625135 Eh     10.20 kcal/mol|
|  sn= 9 | S(rot)=       0.01614014 Eh     10.13 kcal/mol|
|  sn=10 | S(rot)=       0.01604066 Eh     10.07 kcal/mol|
|  sn=11 | S(rot)=       0.01595067 Eh     10.01 kcal/mol|
|  sn=12 | S(rot)=       0.01586851 Eh      9.96 kcal/mol|
 linear molecules ---------------------------------------
|  Dinfh | S(rot)=       0.01131156 Eh      7.10 kcal/mol|
|  Cinfv | S(rot)=       0.01196601 Eh      7.51 kcal/mol|
 --------------------------------------------------------


-------------------
GIBBS FREE ENERGY
-------------------

The Gibbs free energy is G = H - T*S

Total enthalpy                    ...  -4714.43214951 Eh 
Total entropy correction          ...     -0.11071320 Eh    -69.47 kcal/mol
-----------------------------------------------------------------------
Final Gibbs free energy         ...  -4714.54286271 Eh

For completeness - the Gibbs free energy minus the electronic energy
G-E(el)                           ...      0.48742231 Eh    305.86 kcal/mol


Maximum memory used throughout the entire PROP-calculation: 1692.2 MB

--------------------------------
SUGGESTED CITATIONS FOR THIS RUN
--------------------------------

Below you find a list of papers that are relevant to this ORCA run
We neither can nor want to force you to cite these papers, but we appreciate if you do
You receive ORCA, which is the product of decades of hard work by many enthusiastic individuals, for free
The only thing we kindly ask in return is that you cite our papers,
We deeply appreciate it, if you show your appreciation for ORCA by not just citing the generic ORCA reference.

Please note that relegating all ORCA citations to the supporting information does *not* help us.
SI sections are not indexed - citations you put there will not count into any citation statistics
But we need these citations in order to attract the funding resources that allow us to do what we are doing

Therefore, if you are a happy ORCA user, please consider citing a few of the papers listed below in the main body of your paper

In addition to the list printed below, the program has created the file SAVHIG-S6.bibtex that contains the list in bibtex format
You can import this file easily into all common literature databanks and citation aid programs


List of essential papers. We consider these as the minimum necessary citations

  1. Neese,F.
     Software update: the ORCA program system, version 5.0
     WIRES Comput. Molec. Sci., 2022 12(1)e1606
     doi.org/10.1002/wcms.1606

List of papers to cite with high priority. The work reported in these papers was absolutely
necessary for this run to complete.
Our perspective: the developers of density functionals and basis sets usually get cited in chemistry papers
Good! But without the algorithms to do something with them, the functionals or basis sets would not do anything.
Hence, in our opinion, the algorithm design and method developments papers are equally worthy of getting cited

  1. Neese,F.
     An improvement of the resolution of the identity approximation for the formation of the Coulomb matrix
     J. Comp. Chem., 2003 24(14)1740-1747
     doi.org/10.1002/jcc.10318
  2. Neese,F.; Wennmohs,F.; Hansen,A.; Becker,U.
     Efficient, approximate and parallel Hartree-Fock and hybrid DFT calculations. A 'chain-of-spheres' algorithm for the Hartree-Fock exchange
     Chem. Phys., 2009 356(1-3)98-109
     doi.org/10.1016/j.chemphys.2008.10.036
  3. Bykov,D.; Petrenko,T.; Izsak,R.; Kossmann,S.; Becker,U.; Valeev,E.; Neese,F.
     Efficient implementation of the analytic second derivatives of Hartree-Fock and hybrid DFT energies: a detailed analysis of different approximations
     Molec. Phys., 2015 113 1961-1977
     doi.org/10.1080/00268976.2015.1025114
  4. Helmich-Paris,B.; de Souza,B.; Neese,F.; Izsák,R.
     An improved chain of spheres for exchange algorithm
     J. Chem. Phys., 2021 155 104109
     doi.org/doi: 10.1063/5.0058766.
  5. Helmich-Paris,B.
     A trust-region augmented Hessian implementation for restricted and unrestricted Hartree–Fock and Kohn–Sham methods
     J. Chem. Phys., 2021 154 164104
     doi.org/10.1063/5.0040798
  6. Neese,F.
     The SHARK Integral Generation and Digestion System
     J. Comp. Chem., 2022  1-16
     doi.org/10.1002/jcc.26942

List of suggested additional citations. These are papers that are important in the 'surrounding' of 
of this run, or papers that preceded the highly important papers. If you like your results we are grateful for a citation.

  1. Izsak,R.; Neese,F.
     An overlap fitted chain of spheres exchange method
     J. Chem. Phys., 2011 135 144105
     doi.org/10.1063/1.3646921
  2. Izsak,R.; Hansen,A.; Neese,F.
     The resolution of identity and chain of spheres approximations for the LPNO-CCSD singles Fock term
     Molec. Phys., 2012 110 2413-2417
     doi.org/10.1080/00268976.2012.687466
  3. Neese,F.
     The ORCA program system
     WIRES Comput. Molec. Sci., 2012 2(1)73-78
     doi.org/10.1002/wcms.81
  4. Izsak,R.; Neese,F.; Klopper,W.
     Robust fitting techniques in the chain of spheres approximation to the Fock exchange: The role of the complementary space
     J. Chem. Phys., 2013 139 
     doi.org/10.1063/1.4819264
  5. Neese,F.
     Software update: the ORCA program system, version 4.0
     WIRES Comput. Molec. Sci., 2018 8(1)1-6
     doi.org/10.1002/wcms.1327
  6. Neese,F.; Wennmohs,F.; Becker,U.; Riplinger,C.
     The ORCA quantum chemistry program package
     J. Chem. Phys., 2020 152 Art. No. L224108
     doi.org/10.1063/5.0004608

List of optional additional citations

  1. Neese,F.
     Approximate second-order SCF convergence for spin unrestricted wavefunctions
     Chem. Phys. Lett., 2000 325(1-3)93-98
     doi.org/10.1016/s0009-2614(00)00662-x

Timings for individual modules:

Sum of individual times          ...    74010.583 sec (=1233.510 min)
Startup calculation              ...      503.591 sec (=   8.393 min)   0.7 %
SCF iterations                   ...    22429.848 sec (= 373.831 min)  30.3 %
Property integrals               ...     9871.365 sec (= 164.523 min)  13.3 %
SCF Response                     ...    36325.210 sec (= 605.420 min)  49.1 %
Property calculations            ...     2099.100 sec (=  34.985 min)   2.8 %
SCF Gradient evaluation          ...     2779.701 sec (=  46.328 min)   3.8 %
Geometry relaxation              ...        1.767 sec (=   0.029 min)   0.0 %
                             ****ORCA TERMINATED NORMALLY****
TOTAL RUN TIME: 0 days 20 hours 34 minutes 33 seconds 842 msec
