
                                 *****************
                                 * O   R   C   A *
                                 *****************

                                            #,                                       
                                            ###                                      
                                            ####                                     
                                            #####                                    
                                            ######                                   
                                           ########,                                 
                                     ,,################,,,,,                         
                               ,,#################################,,                 
                          ,,##########################################,,             
                       ,#########################################, ''#####,          
                    ,#############################################,,   '####,        
                  ,##################################################,,,,####,       
                ,###########''''           ''''###############################       
              ,#####''   ,,,,##########,,,,          '''####'''          '####       
            ,##' ,,,,###########################,,,                        '##       
           ' ,,###''''                  '''############,,,                           
         ,,##''                                '''############,,,,        ,,,,,,###''
      ,#''                                            '''#######################'''  
     '                                                          ''''####''''         
             ,#######,   #######,   ,#######,      ##                                
            ,#'     '#,  ##    ##  ,#'     '#,    #''#        ,####,   ,####,        
            ##       ##  ##   ,#'  ##            #'  '#       #'       #'  '#        
            ##       ##  #######   ##           ,######,      #####,   #    #        
            '#,     ,#'  ##    ##  '#,     ,#' ,#      #,     #,   #   #,  ,#        
             '#######'   ##     ##  '#######'  #'      '#     '####' # '####'        



                #########################################################
                #                        -***-                          #
                #          Department of theory and spectroscopy        #
                #                                                       #
                #                      Frank Neese                      #
                #                                                       #
                #     Directorship, Architecture, Infrastructure        #
                #                    SHARK, DRIVERS                     #
                #        Core code/Algorithms in most modules           #
                #                                                       #
                #        Max Planck Institute fuer Kohlenforschung      #
                #                Kaiser Wilhelm Platz 1                 #
                #                 D-45470 Muelheim/Ruhr                 #
                #                      Germany                          #
                #                                                       #
                #                  All rights reserved                  #
                #                        -***-                          #
                #########################################################


                         Program Version 6.0.1  -  RELEASE   -


 With contributions from (in alphabetic order):
[Max-Planck-Institut fuer Kohlenforschung]                               
  Daniel Aravena         : Magnetic Suceptibility                        
  Michael Atanasov       : Ab Initio Ligand Field Theory (pilot matlab implementation)
  Alexander A. Auer      : GIAO ZORA, VPT2 properties, NMR spectrum      
  Ute Becker             : All parallelization in ORCA, NUMFREQ, NUMCALC 
  Giovanni Bistoni       : ED, misc. LED, open-shell LED, HFLD           
  Martin Brehm           : Molecular dynamics                            
  Dmytro Bykov           : pre 5.0 version of the SCF Hessian            
  Marcos Casanova-Páez   : Triplet and SCS-CIS(D). UHF-(DLPNO)-IP/EA/STEOM-CCSD. UHF-CVS-IP/STEOM-CCSD   
  Vijay G. Chilkuri      : MRCI spin determinant printing, contributions to CSF-ICE 
  Pauline Colinet        : FMM embedding                                 
  Dipayan Datta          : RHF DLPNO-CCSD density                        
  Achintya Kumar Dutta   : EOM-CC, STEOM-CC                              
  Nicolas Foglia         : Exact transition moments, OPA infrastructure, MCD improvements    
  Dmitry Ganyushin       : Spin-Orbit,Spin-Spin,Magnetic field MRCI      
  Miquel Garcia-Rates    : C-PCM and meta-GGA Hessian, CCSD/C-PCM, Gaussian charge scheme 
  Tiago L. C. Gouveia    : GS-ROHF, GS-ROCIS                             
  Yang Guo               : DLPNO-NEVPT2, F12-NEVPT2, CIM, IAO-localization        
  Andreas Hansen         : Spin unrestricted coupled pair/coupled cluster methods 
  Ingolf Harden          : AUTO-CI MPn and infrastructure                
  Benjamin Helmich-Paris : MC-RPA, TRAH-(SCF,CASSCF), AVAS, COSX integrals, SCF dyn. polar. 
  Lee Huntington         : MR-EOM, pCC                                   
  Robert Izsak           : Overlap fitted RIJCOSX, COSX-SCS-MP3, EOM     
  Riya Kayal             : Wick's Theorem for AUTO-CI, AUTO-CI UHF-CCSDT 
  Emily Kempfer          : AUTO-CI, RHF CISDT and CCSDT                  
  Christian Kollmar      : KDIIS, OOCD, Brueckner-CCSD(T), CCSD density, CASPT2, CASPT2-K, improved NEVPT2 
  Axel Koslowski         : Symmetry handling                             
  Simone Kossmann        : meta-GGA functionals, TD-DFT gradient, OOMP2, (MP2 Hessian; deprecated post 5.0) 
  Lucas Lang             : DCDCAS                                        
  Marvin Lechner         : AUTO-CI (C++ implementation), FIC-MRCC        
  Spencer Leger          : CASSCF response                               
  Dagmar Lenk            : GEPOL surface, SMD, ORCA-2-JSON               
  Dimitrios Liakos       : Extrapolation schemes; Compound Job, initial MDCI parallelization 
  Dimitrios Manganas     : Further ROCIS development; embedding schemes. LFT, Crystal Embedding 
  Dimitrios Pantazis     : SARC Basis sets                               
  Anastasios Papadopoulos: AUTO-CI, single reference methods and gradients 
  Taras Petrenko         : pre 6.0 DFT Hessian and TD-DFT gradient, (ASA, deprecated), ECA, 1-Electron XAS/XES, NRVS 
  Peter Pinski           : DLPNO-MP2, DLPNO-MP2 Gradient                 
  Christoph Reimann      : Effective Core Potentials                     
  Marius Retegan         : Local ZFS, SOC                                
  Christoph Riplinger    : Optimizer, TS searches, QM/MM, DLPNO-CCSD(T), (RO)-DLPNO pert. Triples 
  Michael Roemelt        : Original ROCIS implementation                 
  Masaaki Saitow         : Open-shell DLPNO-CCSD energy and density      
  Barbara Sandhoefer     : DKH picture change effects                    
  Kantharuban Sivalingam : CASSCF convergence/infrastructure, NEVPT2 and variants, FIC-MRCI 
  Bernardo de Souza      : ESD, SOC TD-DFT                               
  Georgi L. Stoychev     : AutoAux, RI-MP2 NMR, DLPNO-MP2 response, X2C  
  Van Anh Tran           : RI-MP2 g-tensors                              
  Willem Van den Heuvel  : Paramagnetic NMR                              
  Zikuan Wang            : NOTCH, Electric field optimization            
  Frank Wennmohs         : Technical directorship and infrastructure     
  Hang Xu                : AUTO-CI-Response properties                   
                                                                         
[FACCTs GmbH]                                                            
  Markus Bursch, Miquel Garcia-Rates, Christoph Riplinger, Bernardo de Souza, Georgi L. Stoychev 
                                                                 
  APM, Basis sets (HGBS, AHGBS, def-TZVP (Ac-Lr), def2-XVPD (La-Lu)), CI-OPT, improved COSX, DLPNO-Multilevel,           
  DOCKER, DRACO, updates on ESD, GOAT, IRC, LR-CPCM, MBIS, meta-GGA TD-DFT gradient, ML-optimized integration grids, 
  MM, NACMEs, nearIR, NEB, NEB-TS, NL-DFT gradient (VV10), 2- and 3-layer-ONIOM, interface openCOSMO-RS, QMMM,   
  Crystal-QMMM, SF, symmetry and pop. for TD-DFT, r2SCAN hybrids, SOLVATOR                                   
                                                                         
[Other institutions]                                                     
  V. Asgeirsson          : NEB                                           
  Christoph Bannwarth    : sTDA-DFT, sTD-DFT, PBEh-3c, B97-3c, D3        
  Sebastian Ehlert       : rSCAN, r2SCAN, r2SCAN-3c, D4, dhf basis sets  
  Marvin Friede          : D4 for Fr, Ra, Ac-Lr                          
  Lars Goerigk           : TD-DFT with DH, B97 family of functionals     
  Stefan Grimme          : VdW corrections, initial TS optimization, DFT functionals, gCP, sTDA/sTD-DF 
  Waldemar Hujo          : DFT-NL                                        
  H. Jonsson             : NEB                                           
  Holger Kruse           : gCP                                           
  Marcel Mueller         : wB97X-3c, vDZP basis set                      
  Hagen Neugebauer       : wr2SCAN                                       
  Tobias Risthaus        : range-separated hybrid DFT                    
  Lukas Wittmann         : regularized MP2, r2SCAN double-hybrids, wr2SCAN        
                                                                         
We gratefully acknowledge several colleagues who have allowed us to      
interface, adapt or use parts of their codes:                            
  Ed Valeev, F. Pavosevic, A. Kumar             : LibInt (2-el integral package), F12 methods 
  Garnet Chan, S. Sharma, J. Yang, R. Olivares  : DMRG                   
  Ulf Ekstrom                                   : XCFun DFT Library      
  Mihaly Kallay                                 : mrcc  (arbitrary order and MRCC methods)
  Frank Weinhold                                : gennbo (NPA and NBO analysis)           
  Simon Mueller                                 : openCOSMO-RS                            
  Christopher J. Cramer and Donald G. Truhlar   : smd solvation model                     
  S Lehtola, MJT Oliveira, MAL Marques          : LibXC Library                           
  Liviu Ungur et al                             : ANISO software                          


 Your calculation uses the libint2 library for the computation of 2-el integrals
 For citations please refer to: http://libint.valeyev.net

 Your ORCA version has been built with support for libXC version: 6.2.2
 For citations please refer to: https://libxc.gitlab.io

 This ORCA versions uses:
   CBLAS   interface :  Fast vector & matrix operations
   LAPACKE interface :  Fast linear algebra routines
   SCALAPACK package :  Parallel linear algebra routines
   Shared memory     :  Shared parallel matrices
   BLAS/LAPACK       :  OpenBLAS 0.3.27  USE64BITINT DYNAMIC_ARCH NO_AFFINITY Cooperlake SINGLE_THREADED
        Core in use  :  Cooperlake
   Copyright (c) 2011-2014, The OpenBLAS Project


NOTE: MaxCore=3600 MB was set to SCF,MP2,MDCI,CIPSI,MRCI and CIS
      => If you want to overwrite this, your respective input block should be placed after the MaxCore statement
Warning: RI is on but no J-basis has been assigned. Assigning Def2/J (nothing to worry about!)
================================================================================

----- Orbital basis set information -----
Your calculation utilizes the basis: def2-TZVP
   F. Weigend and R. Ahlrichs, Phys. Chem. Chem. Phys. 7, 3297 (2005).

----- AuxJ basis set information -----
Your calculation utilizes the auxiliary basis: def2/J
   F. Weigend, Phys. Chem. Chem. Phys. 8, 1057 (2006).

================================================================================
                                        WARNINGS
                       Please study these warnings very carefully!
================================================================================


WARNING: your system is open-shell and RHF/RKS was chosen
  ===> : WILL SWITCH to UHF/UKS


WARNING: Geometry Optimization
  ===> : Switching off AutoStart
         For restart on a previous wavefunction, please use MOREAD

================================================================================
                                       INPUT FILE
================================================================================
NAME = SELQIJ-S4.inp
|  1> ! PBE0 def2-TZVP  Opt Freq DEFGRID3
|  2> 
|  3> %maxcore 3600
|  4> 
|  5> %pal
|  6>     nprocs 16
|  7> end
|  8> 
|  9> *xyz 0 2
| 10> Fe -4.0818 1.789 12.6361
| 11> S -2.3788 3.1935 12.9257
| 12> S -2.6134 0.9671 11.1985
| 13> Cl -5.8191 2.5291 11.3013
| 14> N -4.9277 2.3595 14.385
| 15> N -4.8068 -0.0348 13.3021
| 16> C -5.3451 1.3743 15.1364
| 17> C -5.9326 1.5589 16.4177
| 18> C -6.0883 2.8757 16.8231
| 19> C -5.5774 3.9048 16.0847
| 20> C -5.0092 3.6203 14.8425
| 21> C -4.4211 4.7221 14.0071
| 22> C -2.897 4.6374 13.971
| 23> C -2.3972 4.4951 15.4462
| 24> C -2.504 5.6454 16.2295
| 25> C -2.095 5.5091 17.5759
| 26> C -1.6764 4.4043 18.0681
| 27> C -1.5542 3.2994 17.3732
| 28> C -1.9423 3.3146 15.9544
| 29> C -2.2459 5.8421 13.3209
| 30> C -2.9255 6.8304 12.6723
| 31> C -2.2311 7.8853 12.0686
| 32> C -0.911 7.9761 12.1033
| 33> C -0.1371 7.0075 12.7693
| 34> C -0.8777 5.9481 13.3774
| 35> C -5.2731 0.0212 14.579
| 36> C -5.671 -1.1049 15.2609
| 37> C -5.6132 -2.3308 14.6369
| 38> C -5.1491 -2.3701 13.3079
| 39> C -4.7555 -1.1987 12.6853
| 40> C -4.2904 -1.2471 11.2767
| 41> C -2.7602 -0.8597 11.1536
| 42> C -2.0289 -1.5665 12.2814
| 43> C -1.9525 -2.9619 12.2785
| 44> C -1.3996 -3.6233 13.3629
| 45> C -0.863 -2.9362 14.3908
| 46> C -0.8625 -1.5589 14.4198
| 47> C -1.4434 -0.8809 13.3325
| 48> C -2.1885 -1.2153 9.7493
| 49> C -2.9967 -1.2471 8.6432
| 50> C -2.3834 -1.5286 7.3691
| 51> C -1.0768 -1.7859 7.2823
| 52> C -0.2823 -1.6951 8.3536
| 53> C -0.839 -1.4242 9.632
| 54> H -6.2395 0.787 16.9866
| 55> H -6.5002 3.0739 17.6975
| 56> H -5.6395 4.8508 16.4104
| 57> H -4.6829 5.603 14.3951
| 58> H -4.7675 4.648 13.0733
| 59> H -2.8431 6.505 15.853
| 60> H -2.143 6.3204 18.1651
| 61> H -1.4162 4.3952 19.0309
| 62> H -1.218 2.4579 17.809
| 63> H -1.8741 2.4973 15.3898
| 64> H -3.9217 6.7896 12.6303
| 65> H -2.808 8.6012 11.6053
| 66> H -0.4392 8.7389 11.656
| 67> H 0.8039 7.0529 12.8069
| 68> H -0.3547 5.2488 13.8725
| 69> H -5.9996 -1.0428 16.202
| 70> H -5.8812 -3.1708 15.106
| 71> H -5.11 -3.2389 12.8142
| 72> H -4.419 -2.1734 10.9234
| 73> H -4.831 -0.6039 10.7337
| 74> H -2.3092 -3.4826 11.4996
| 75> H -1.3897 -4.6237 13.3846
| 76> H -0.4522 -3.4356 15.1494
| 77> H -0.4656 -1.0579 15.1885
| 78> H -1.4377 0.1181 13.318
| 79> H -3.9874 -1.0806 8.7271
| 80> H -2.9479 -1.5407 6.5468
| 81> H -0.6796 -2.0357 6.402
| 82> H 0.6968 -1.8147 8.2841
| 83> H -0.2512 -1.3864 10.4398
| 84> *
| 85> 
| 86>                          ****END OF INPUT****
================================================================================

                       *****************************
                       * Geometry Optimization Run *
                       *****************************

Geometry optimization settings:
Update method            Update   .... BFGS
Choice of coordinates    CoordSys .... (2022) Redundant Internals
Initial Hessian          InHess   .... Almloef's Model
Max. no of cycles        MaxIter  .... 222

Convergence Tolerances:
Energy Change            TolE     ....  5.0000e-06 Eh
Max. Gradient            TolMAXG  ....  3.0000e-04 Eh/bohr
RMS Gradient             TolRMSG  ....  1.0000e-04 Eh/bohr
Max. Displacement        TolMAXD  ....  4.0000e-03 bohr
RMS Displacement         TolRMSD  ....  2.0000e-03 bohr
Strict Convergence                .... False

------------------------------------------------------------------------------
                        ORCA OPTIMIZATION COORDINATE SETUP
------------------------------------------------------------------------------

The optimization will be done in redundant internal coordinates (2022)
Making redundant internal coordinates   ...  (2022 redundants) done
Evaluating the initial hessian          ...  (Almloef) done
Evaluating the coordinates              ...  done
Calculating the B-matrix                .... done
Calculating the G-matrix                .... done
Diagonalizing the G-matrix              .... done
Small eigenvalue found = 2.312e-03
Small eigenvalue found = 3.481e-03
Small eigenvalue found = 4.983e-03
Small eigenvalue found = 6.448e-03
Small eigenvalue found = 7.531e-03
Small eigenvalue found = 8.139e-03
Small eigenvalue found = 1.169e-02
Small eigenvalue found = 2.455e-02
Small eigenvalue found = 2.907e-02
The first mode is                       ....  227
The number of degrees of freedom        ....  216

    -----------------------------------------------------------------
                    Redundant Internal Coordinates


    -----------------------------------------------------------------
         Definition                    Initial Value    Approx d2E/dq
    -----------------------------------------------------------------
      1. B(S   1,Fe  0)                  2.2264         0.789342   
      2. B(S   2,Fe  0)                  2.2132         0.828345   
      3. B(Cl  3,Fe  0)                  2.3125         0.478709   
      4. B(N   4,Fe  0)                  2.0248         0.549889   
      5. B(N   5,Fe  0)                  2.0725         0.461370   
      6. B(C   6,N   4)                  1.3075         0.757823   
      7. B(C   7,C   6)                  1.4216         0.556306   
      8. B(C   8,C   7)                  1.3866         0.632738   
      9. B(C   9,C   8)                  1.3658         0.682986   
     10. B(C  10,C   9)                  1.3953         0.612757   
     11. B(C  10,N   4)                  1.3437         0.663320   
     12. B(C  11,C  10)                  1.5026         0.413180   
     13. B(C  12,C  11)                  1.5269         0.377883   
     14. B(C  12,S   1)                  1.8563         0.303722   
     15. B(C  13,C  12)                  1.5641         0.329645   
     16. B(C  14,C  13)                  1.3958         0.611707   
     17. B(C  15,C  14)                  1.4137         0.572622   
     18. B(C  16,C  15)                  1.2799         0.936359   
     19. B(C  17,C  16)                  1.3110         0.835291   
     20. B(C  18,C  17)                  1.4710         0.463987   
     21. B(C  18,C  13)                  1.3634         0.689006   
     22. B(C  19,C  12)                  1.5159         0.393478   
     23. B(C  20,C  19)                  1.3636         0.688548   
     24. B(C  21,C  20)                  1.3998         0.602688   
     25. B(C  22,C  21)                  1.3237         0.797182   
     26. B(C  23,C  22)                  1.4074         0.586194   
     27. B(C  24,C  23)                  1.4285         0.542400   
     28. B(C  24,C  19)                  1.3735         0.663931   
     29. B(C  25,C   6)                  1.4652         0.474013   
     30. B(C  25,N   5)                  1.3605         0.623578   
     31. B(C  26,C  25)                  1.3753         0.659497   
     32. B(C  27,C  26)                  1.3768         0.655867   
     33. B(C  28,C  27)                  1.4083         0.584276   
     34. B(C  29,C  28)                  1.3837         0.639337   
     35. B(C  29,N   5)                  1.3182         0.728410   
     36. B(C  30,C  29)                  1.4842         0.442046   
     37. B(C  31,C  30)                  1.5833         0.307177   
     38. B(C  31,S   2)                  1.8332         0.330634   
     39. B(C  32,C  31)                  1.5187         0.389480   
     40. B(C  33,C  32)                  1.3975         0.607833   
     41. B(C  34,C  33)                  1.3853         0.635665   
     42. B(C  35,C  34)                  1.3478         0.729509   
     43. B(C  36,C  35)                  1.3776         0.653903   
     44. B(C  37,C  36)                  1.4069         0.587199   
     45. B(C  37,C  32)                  1.3848         0.636848   
     46. B(C  38,C  31)                  1.5574         0.337860   
     47. B(C  39,C  38)                  1.3703         0.671749   
     48. B(C  40,C  39)                  1.4418         0.516580   
     49. B(C  41,C  40)                  1.3345         0.766046   
     50. B(C  42,C  41)                  1.3368         0.759524   
     51. B(C  43,C  42)                  1.4204         0.558723   
     52. B(C  43,C  38)                  1.3706         0.670946   
     53. B(H  44,C   7)                  1.0068         0.488820   
     54. B(H  45,C   8)                  0.9867         0.526353   
     55. B(H  46,C   9)                  1.0024         0.496759   
     56. B(H  47,C  11)                  0.9975         0.505768   
     57. B(H  48,C  11)                  0.9987         0.503541   
     58. B(H  49,C  14)                  0.9978         0.505224   
     59. B(H  50,C  15)                  1.0038         0.494205   
     60. B(H  51,C  16)                  0.9974         0.506045   
     61. B(H  52,C  17)                  1.0055         0.491137   
     62. B(H  53,C  18)                  0.9957         0.509196   
     63. B(H  54,C  20)                  0.9979         0.505047   
     64. B(H  55,C  21)                  1.0296         0.449642   
     65. B(H  56,C  22)                  1.0023         0.497047   
     66. B(H  57,C  23)                  0.9428         0.618301   
     67. B(H  58,C  24)                  1.0038         0.494200   
     68. B(H  59,C  26)                  0.9988         0.503506   
     69. B(H  60,C  27)                  0.9987         0.503529   
     70. B(H  61,C  28)                  1.0000         0.501126   
     71. B(H  62,C  30)                  0.9997         0.501763   
     72. B(H  63,C  30)                  1.0004         0.500462   
     73. B(H  64,C  33)                  1.0025         0.496581   
     74. B(H  65,C  34)                  1.0007         0.499943   
     75. B(H  66,C  35)                  0.9968         0.507109   
     76. B(H  67,H  53)                  3.8293         0.000003   
     77. B(H  67,C  36)                  0.9997         0.501726   
     78. B(H  68,C  37)                  0.9991         0.502822   
     79. B(H  69,C  39)                  1.0081         0.486523   
     80. B(H  70,C  40)                  0.9975         0.505847   
     81. B(H  71,C  41)                  0.9975         0.505742   
     82. B(H  72,C  42)                  0.9888         0.522209   
     83. B(H  73,C  43)                  0.9997         0.501682   
     84. A(S   2,Fe  0,N   4)          160.5380         0.588510   
     85. A(S   1,Fe  0,N   5)          141.3445         0.563843   
     86. A(S   1,Fe  0,N   4)           91.6884         0.583087   
     87. A(S   1,Fe  0,Cl  3)          116.6054         0.590568   
     88. A(S   2,Fe  0,Cl  3)          104.0260         0.596074   
     89. A(N   4,Fe  0,N   5)           79.8770         0.503083   
     90. A(S   2,Fe  0,N   5)           96.5476         0.569055   
     91. A(S   1,Fe  0,S   2)           79.1209         0.661805   
     92. A(Cl  3,Fe  0,N   4)           95.4244         0.526389   
     93. A(Cl  3,Fe  0,N   5)          101.7894         0.509354   
     94. A(Fe  0,S   1,C  12)          110.5119         0.491629   
     95. A(Fe  0,S   2,C  31)          109.4408         0.503945   
     96. A(Fe  0,N   4,C  10)          125.7183         0.477304   
     97. A(C   6,N   4,C  10)          119.4717         0.449658   
     98. A(Fe  0,N   4,C   6)          114.6745         0.489188   
     99. A(Fe  0,N   5,C  25)          112.6601         0.456998   
    100. A(C  25,N   5,C  29)          119.2629         0.441477   
    101. A(Fe  0,N   5,C  29)          127.8059         0.470171   
    102. A(C   7,C   6,C  25)          118.8888         0.405851   
    103. A(N   4,C   6,C   7)          123.5090         0.438454   
    104. A(N   4,C   6,C  25)          117.4877         0.426018   
    105. A(C   6,C   7,H  44)          122.3915         0.364956   
    106. A(C   8,C   7,H  44)          121.9155         0.373115   
    107. A(C   6,C   7,C   8)          115.6739         0.427256   
    108. A(C   7,C   8,H  45)          119.7857         0.377912   
    109. A(C   9,C   8,H  45)          118.9427         0.382953   
    110. A(C   7,C   8,C   9)          121.0315         0.443333   
    111. A(C  10,C   9,H  46)          120.4584         0.372089   
    112. A(C   8,C   9,H  46)          120.8138         0.379128   
    113. A(C   8,C   9,C  10)          118.6870         0.440769   
    114. A(C   9,C  10,C  11)          120.3213         0.402946   
    115. A(N   4,C  10,C   9)          121.2742         0.435575   
    116. A(N   4,C  10,C  11)          118.3589         0.406001   
    117. A(H  47,C  11,H  48)          109.7651         0.324155   
    118. A(C  12,C  11,H  48)          108.6621         0.343531   
    119. A(C  10,C  11,H  47)          109.1818         0.348988   
    120. A(C  10,C  11,C  12)          111.2939         0.370410   
    121. A(C  12,C  11,H  47)          108.6722         0.343786   
    122. A(C  10,C  11,H  48)          109.2492         0.348728   
    123. A(S   1,C  12,C  13)          111.7856         0.361351   
    124. A(C  13,C  12,C  19)          109.8494         0.358844   
    125. A(S   1,C  12,C  19)          104.8779         0.372484   
    126. A(S   1,C  12,C  11)          109.5788         0.369901   
    127. A(C  11,C  12,C  19)          113.2532         0.367315   
    128. A(C  11,C  12,C  13)          107.5609         0.356385   
    129. A(C  12,C  13,C  14)          115.4602         0.387184   
    130. A(C  14,C  13,C  18)          122.0012         0.441332   
    131. A(C  12,C  13,C  18)          122.4780         0.395324   
    132. A(C  15,C  14,H  49)          122.7328         0.368850   
    133. A(C  13,C  14,H  49)          121.6161         0.373064   
    134. A(C  13,C  14,C  15)          115.6502         0.426882   
    135. A(C  16,C  15,H  50)          119.1809         0.400242   
    136. A(C  14,C  15,H  50)          117.8555         0.367457   
    137. A(C  14,C  15,C  16)          122.9630         0.461061   
    138. A(C  15,C  16,C  17)          123.6534         0.494253   
    139. A(C  15,C  16,H  51)          117.6738         0.401914   
    140. A(C  17,C  16,H  51)          118.6646         0.393928   
    141. A(C  16,C  17,H  52)          120.4486         0.391871   
    142. A(C  16,C  17,C  18)          118.5520         0.434707   
    143. A(C  18,C  17,H  52)          120.9900         0.354135   
    144. A(C  13,C  18,H  53)          121.4815         0.381336   
    145. A(C  13,C  18,C  17)          117.1616         0.419965   
    146. A(C  17,C  18,H  53)          121.3569         0.356311   
    147. A(C  20,C  19,C  24)          117.3951         0.447872   
    148. A(C  12,C  19,C  24)          118.1362         0.405181   
    149. A(C  12,C  19,C  20)          124.4673         0.407798   
    150. A(C  21,C  20,H  54)          120.5223         0.372088   
    151. A(C  19,C  20,H  54)          119.2047         0.380751   
    152. A(C  19,C  20,C  21)          120.2724         0.440096   
    153. A(C  22,C  21,H  55)          121.5288         0.382759   
    154. A(C  20,C  21,H  55)          116.1120         0.364740   
    155. A(C  20,C  21,C  22)          122.3519         0.451933   
    156. A(C  21,C  22,H  56)          120.6619         0.389500   
    157. A(C  21,C  22,C  23)          120.9042         0.449661   
    158. A(C  23,C  22,H  56)          118.4338         0.369301   
    159. A(C  24,C  23,H  57)          122.4231         0.378367   
    160. A(C  22,C  23,H  57)          122.3134         0.383497   
    161. A(C  22,C  23,C  24)          115.2626         0.419557   
    162. A(C  23,C  24,H  58)          117.1601         0.364060   
    163. A(C  19,C  24,H  58)          119.0474         0.376939   
    164. A(C  19,C  24,C  23)          123.7924         0.429007   
    165. A(C   6,C  25,C  26)          123.5958         0.418292   
    166. A(N   5,C  25,C  26)          122.0598         0.436496   
    167. A(N   5,C  25,C   6)          114.3242         0.411469   
    168. A(C  25,C  26,H  59)          120.7626         0.377719   
    169. A(C  25,C  26,C  27)          119.4857         0.443406   
    170. A(C  27,C  26,H  59)          119.7517         0.377359   
    171. A(C  26,C  27,H  60)          121.6509         0.377362   
    172. A(C  26,C  27,C  28)          117.8013         0.433823   
    173. A(C  28,C  27,H  60)          120.5454         0.369916   
    174. A(C  27,C  28,H  61)          120.2004         0.369611   
    175. A(C  27,C  28,C  29)          119.6524         0.431837   
    176. A(C  29,C  28,H  61)          120.1458         0.375390   
    177. A(C  28,C  29,C  30)          119.2458         0.410860   
    178. A(N   5,C  29,C  30)          119.0162         0.417775   
    179. A(N   5,C  29,C  28)          121.7249         0.446415   
    180. A(H  62,C  30,H  63)          109.5361         0.323407   
    181. A(C  29,C  30,H  63)          108.9554         0.352363   
    182. A(C  29,C  30,C  31)          111.6341         0.361655   
    183. A(C  31,C  30,H  63)          108.8294         0.331535   
    184. A(C  31,C  30,H  62)          108.8789         0.331678   
    185. A(C  29,C  30,H  62)          108.9846         0.352517   
    186. A(C  30,C  31,C  32)          107.0847         0.353953   
    187. A(S   2,C  31,C  32)          114.0184         0.377316   
    188. A(S   2,C  31,C  30)          108.6214         0.362234   
    189. A(C  32,C  31,C  38)          112.7433         0.359725   
    190. A(C  30,C  31,C  38)          111.6559         0.345563   
    191. A(S   2,C  31,C  38)          102.7221         0.368186   
    192. A(C  31,C  32,C  33)          119.3078         0.398211   
    193. A(C  33,C  32,C  37)          118.2168         0.434613   
    194. A(C  31,C  32,C  37)          122.4700         0.401492   
    195. A(C  34,C  33,H  64)          120.1463         0.374428   
    196. A(C  32,C  33,H  64)          120.0512         0.371550   
    197. A(C  32,C  33,C  34)          119.7964         0.434467   
    198. A(C  33,C  34,H  65)          119.8828         0.374864   
    199. A(C  33,C  34,C  35)          120.8298         0.449034   
    200. A(C  35,C  34,H  65)          119.2856         0.383914   
    201. A(C  34,C  35,C  36)          121.7269         0.451346   
    202. A(C  36,C  35,H  66)          118.9939         0.377628   
    203. A(C  34,C  35,H  66)          119.2788         0.384865   
    204. A(C  35,C  36,C  37)          117.7353         0.433979   
    205. A(C  37,C  36,H  67)          121.1090         0.370005   
    206. A(C  35,C  36,H  67)          121.1555         0.376932   
    207. A(C  32,C  37,C  36)          121.5060         0.431922   
    208. A(C  36,C  37,H  68)          119.3876         0.370143   
    209. A(C  32,C  37,H  68)          119.1060         0.375356   
    210. A(C  39,C  38,C  43)          120.5378         0.446721   
    211. A(C  31,C  38,C  43)          118.2565         0.395189   
    212. A(C  31,C  38,C  39)          121.1085         0.395272   
    213. A(C  38,C  39,C  40)          117.8380         0.426166   
    214. A(C  40,C  39,H  69)          121.5899         0.360078   
    215. A(C  38,C  39,H  69)          120.5719         0.376682   
    216. A(C  39,C  40,C  41)          120.7706         0.436341   
    217. A(C  41,C  40,H  70)          119.8760         0.387987   
    218. A(C  39,C  40,H  70)          119.3495         0.362478   
    219. A(C  40,C  41,C  42)          121.1083         0.468006   
    220. A(C  42,C  41,H  71)          119.1793         0.387395   
    221. A(C  40,C  41,H  71)          119.7044         0.387973   
    222. A(C  41,C  42,C  43)          120.0838         0.441878   
    223. A(C  43,C  42,H  72)          118.3201         0.369389   
    224. A(C  41,C  42,H  72)          121.5960         0.389567   
    225. A(C  38,C  43,C  42)          119.4711         0.432112   
    226. A(C  42,C  43,H  73)          120.2648         0.366855   
    227. A(C  38,C  43,H  73)          120.2641         0.378608   
    228. D(C  12,S   1,Fe  0,N   4)    -27.2246         0.002447   
    229. D(C  12,S   1,Fe  0,N   5)   -103.0632         0.002447   
    230. D(C  12,S   1,Fe  0,Cl  3)     69.6985         0.002447   
    231. D(C  12,S   1,Fe  0,S   2)    170.0543         0.002447   
    232. D(C  31,S   2,Fe  0,Cl  3)   -100.3239         0.002541   
    233. D(C  31,S   2,Fe  0,N   4)     81.7020         0.002541   
    234. D(C  31,S   2,Fe  0,S   1)    144.7124         0.002541   
    235. D(C  31,S   2,Fe  0,N   5)      3.6009         0.002541   
    236. D(C  10,N   4,Fe  0,S   2)    102.6832         0.002986   
    237. D(C  10,N   4,Fe  0,S   1)     41.5845         0.002986   
    238. D(C   6,N   4,Fe  0,N   5)      7.8957         0.002986   
    239. D(C   6,N   4,Fe  0,S   2)    -73.0369         0.002986   
    240. D(C   6,N   4,Fe  0,S   1)   -134.1356         0.002986   
    241. D(C   6,N   4,Fe  0,Cl  3)    108.9375         0.002986   
    242. D(C  29,N   5,Fe  0,S   2)    -22.0512         0.002547   
    243. D(C  25,N   5,Fe  0,Cl  3)   -102.2948         0.002547   
    244. D(C  29,N   5,Fe  0,S   1)   -102.8068         0.002547   
    245. D(C  25,N   5,Fe  0,S   1)     71.0969         0.002547   
    246. D(C  25,N   5,Fe  0,S   2)    151.8525         0.002547   
    247. D(C  25,N   5,Fe  0,N   4)     -8.8072         0.002547   
    248. D(C  25,C   6,N   4,C  10)    178.2156         0.048339   
    249. D(C   7,C   6,N   4,Fe  0)    178.1635         0.048339   
    250. D(C  25,C   6,N   4,Fe  0)     -5.7752         0.048339   
    251. D(C   7,C   6,N   4,C  10)      2.1543         0.048339   
    252. D(H  44,C   7,C   6,C  25)      4.6520         0.021188   
    253. D(H  44,C   7,C   6,N   4)   -179.3387         0.021188   
    254. D(C   8,C   7,C   6,C  25)   -173.7839         0.021188   
    255. D(C   8,C   7,C   6,N   4)      2.2254         0.021188   
    256. D(C   9,C   8,C   7,H  44)    175.0951         0.027774   
    257. D(H  45,C   8,C   7,C   6)    179.2285         0.027774   
    258. D(C   9,C   8,C   7,C   6)     -6.4608         0.027774   
    259. D(H  45,C   8,C   7,H  44)      0.7845         0.027774   
    260. D(H  46,C   9,C   8,H  45)     -1.6263         0.032721   
    261. D(H  46,C   9,C   8,C   7)   -175.9840         0.032721   
    262. D(C  10,C   9,C   8,H  45)   -179.3123         0.032721   
    263. D(C  10,C   9,C   8,C   7)      6.3300         0.032721   
    264. D(C  11,C  10,C   9,H  46)      3.0573         0.025945   
    265. D(C  11,C  10,C   9,C   8)   -179.2482         0.025945   
    266. D(N   4,C  10,C   9,H  46)   -179.4396         0.025945   
    267. D(N   4,C  10,C   9,C   8)     -1.7451         0.025945   
    268. D(C  11,C  10,N   4,C   6)    175.1048         0.036038   
    269. D(C  11,C  10,N   4,Fe  0)     -0.4277         0.036038   
    270. D(C   9,C  10,N   4,Fe  0)   -177.9784         0.036038   
    271. D(C   9,C  10,N   4,C   6)     -2.4460         0.036038   
    272. D(H  48,C  11,C  10,N   4)     50.9398         0.012637   
    273. D(H  47,C  11,C  10,C   9)    -11.4373         0.012637   
    274. D(H  47,C  11,C  10,N   4)    170.9878         0.012637   
    275. D(C  12,C  11,C  10,C   9)    108.5230         0.012637   
    276. D(C  12,C  11,C  10,N   4)    -69.0519         0.012637   
    277. D(C  13,C  12,C  11,H  48)   -169.9490         0.011388   
    278. D(C  13,C  12,C  11,H  47)     70.6513         0.011388   
    279. D(C  13,C  12,C  11,C  10)    -49.6104         0.011388   
    280. D(S   1,C  12,C  11,H  48)    -48.2321         0.011388   
    281. D(S   1,C  12,C  11,C  10)     72.1065         0.011388   
    282. D(S   1,C  12,C  11,H  47)   -167.6318         0.011388   
    283. D(C  19,C  12,S   1,Fe  0)   -139.0952         0.002961   
    284. D(C  13,C  12,S   1,Fe  0)    101.9231         0.002961   
    285. D(C  11,C  12,S   1,Fe  0)    -17.2217         0.002961   
    286. D(C  18,C  13,C  12,C  11)    105.1542         0.008312   
    287. D(C  18,C  13,C  12,S   1)    -15.1774         0.008312   
    288. D(C  14,C  13,C  12,C  19)     51.6103         0.008312   
    289. D(C  14,C  13,C  12,C  11)    -72.0655         0.008312   
    290. D(C  14,C  13,C  12,S   1)    167.6029         0.008312   
    291. D(H  49,C  14,C  13,C  18)   -179.6115         0.025851   
    292. D(H  49,C  14,C  13,C  12)     -2.3772         0.025851   
    293. D(C  15,C  14,C  13,C  18)      0.7395         0.025851   
    294. D(C  15,C  14,C  13,C  12)    177.9738         0.025851   
    295. D(H  50,C  15,C  14,H  49)     -0.6786         0.022502   
    296. D(H  50,C  15,C  14,C  13)    178.9661         0.022502   
    297. D(C  16,C  15,C  14,H  49)    179.0292         0.022502   
    298. D(C  16,C  15,C  14,C  13)     -1.3262         0.022502   
    299. D(H  51,C  16,C  15,H  50)      0.2948         0.065795   
    300. D(H  51,C  16,C  15,C  14)   -179.4092         0.065795   
    301. D(C  17,C  16,C  15,H  50)   -178.6485         0.065795   
    302. D(C  17,C  16,C  15,C  14)      1.6475         0.065795   
    303. D(H  52,C  17,C  16,C  15)    179.8663         0.050903   
    304. D(H  52,C  17,C  16,H  51)      0.9328         0.050903   
    305. D(C  18,C  17,C  16,C  15)     -1.2388         0.050903   
    306. D(C  18,C  17,C  16,H  51)    179.8277         0.050903   
    307. D(H  53,C  18,C  17,C  16)   -179.4658         0.014662   
    308. D(C  13,C  18,C  17,H  52)    179.5049         0.014662   
    309. D(C  13,C  18,C  17,C  16)      0.6162         0.014662   
    310. D(H  53,C  18,C  13,C  14)    179.6490         0.033348   
    311. D(H  53,C  18,C  13,C  12)      2.6093         0.033348   
    312. D(C  17,C  18,C  13,C  14)     -0.4332         0.033348   
    313. D(H  53,C  18,C  17,H  52)     -0.5771         0.014662   
    314. D(C  17,C  18,C  13,C  12)   -177.4729         0.033348   
    315. D(C  24,C  19,C  12,C  11)    172.3193         0.011508   
    316. D(C  24,C  19,C  12,S   1)    -68.2389         0.011508   
    317. D(C  20,C  19,C  12,C  13)   -128.4013         0.011508   
    318. D(C  20,C  19,C  12,C  11)     -8.1192         0.011508   
    319. D(C  20,C  19,C  12,S   1)    111.3225         0.011508   
    320. D(H  54,C  20,C  19,C  24)   -178.8266         0.033300   
    321. D(H  54,C  20,C  19,C  12)      1.6090         0.033300   
    322. D(C  21,C  20,C  19,C  24)      1.4451         0.033300   
    323. D(C  21,C  20,C  19,C  12)   -178.1193         0.033300   
    324. D(H  55,C  21,C  20,H  54)      0.8984         0.025053   
    325. D(H  55,C  21,C  20,C  19)   -179.3769         0.025053   
    326. D(C  22,C  21,C  20,H  54)    179.9261         0.025053   
    327. D(C  22,C  21,C  20,C  19)     -0.3492         0.025053   
    328. D(H  56,C  22,C  21,H  55)     -1.5142         0.045887   
    329. D(H  56,C  22,C  21,C  20)    179.5101         0.045887   
    330. D(C  23,C  22,C  21,H  55)    178.3861         0.045887   
    331. D(C  23,C  22,C  21,C  20)     -0.5896         0.045887   
    332. D(H  57,C  23,C  22,H  56)     -0.0579         0.023632   
    333. D(H  57,C  23,C  22,C  21)   -179.9603         0.023632   
    334. D(C  24,C  23,C  22,H  56)   -179.7367         0.023632   
    335. D(C  24,C  23,C  22,C  21)      0.3609         0.023632   
    336. D(H  58,C  24,C  23,H  57)      1.2424         0.020108   
    337. D(H  58,C  24,C  23,C  22)   -179.0791         0.020108   
    338. D(C  19,C  24,C  23,H  57)   -178.8626         0.020108   
    339. D(C  19,C  24,C  23,C  22)      0.8159         0.020108   
    340. D(H  58,C  24,C  19,C  20)    178.1834         0.030786   
    341. D(H  58,C  24,C  19,C  12)     -2.2239         0.030786   
    342. D(C  23,C  24,C  19,C  20)     -1.7098         0.030786   
    343. D(C  23,C  24,C  19,C  12)    177.8830         0.030786   
    344. D(C  26,C  25,C   6,C   7)     -4.0893         0.015299   
    345. D(C  26,C  25,C   6,N   4)    179.6612         0.015299   
    346. D(N   5,C  25,C   6,C   7)    174.3023         0.015299   
    347. D(N   5,C  25,C   6,N   4)     -1.9471         0.015299   
    348. D(C  26,C  25,N   5,C  29)      1.2768         0.031516   
    349. D(C  26,C  25,N   5,Fe  0)   -173.2039         0.031516   
    350. D(C   6,C  25,N   5,C  29)   -177.1425         0.031516   
    351. D(C   6,C  25,N   5,Fe  0)      8.3769         0.031516   
    352. D(H  59,C  26,C  25,N   5)    179.2300         0.030346   
    353. D(C  27,C  26,C  25,C   6)    177.5714         0.030346   
    354. D(C  27,C  26,C  25,N   5)     -0.6993         0.030346   
    355. D(H  59,C  26,C  25,C   6)     -2.4993         0.030346   
    356. D(H  60,C  27,C  26,H  59)     -0.8483         0.029989   
    357. D(H  60,C  27,C  26,C  25)    179.0818         0.029989   
    358. D(C  28,C  27,C  26,H  59)    179.7216         0.029989   
    359. D(C  28,C  27,C  26,C  25)     -0.3484         0.029989   
    360. D(H  61,C  28,C  27,H  60)      1.8062         0.023470   
    361. D(H  61,C  28,C  27,C  26)   -178.7570         0.023470   
    362. D(C  29,C  28,C  27,H  60)   -178.6158         0.023470   
    363. D(C  29,C  28,C  27,C  26)      0.8209         0.023470   
    364. D(C  30,C  29,C  28,H  61)      0.6440         0.028396   
    365. D(C  30,C  29,C  28,C  27)   -178.9342         0.028396   
    366. D(N   5,C  29,C  28,H  61)    179.3133         0.028396   
    367. D(N   5,C  29,C  28,C  27)     -0.2649         0.028396   
    368. D(C  30,C  29,N   5,C  25)    177.8967         0.044271   
    369. D(C  30,C  29,N   5,Fe  0)     -8.5534         0.044271   
    370. D(C  28,C  29,N   5,C  25)     -0.7755         0.044271   
    371. D(C  28,C  29,N   5,Fe  0)    172.7744         0.044271   
    372. D(H  63,C  30,C  29,N   5)    -53.4708         0.014417   
    373. D(H  62,C  30,C  29,C  28)      5.7580         0.014417   
    374. D(H  62,C  30,C  29,N   5)   -172.9476         0.014417   
    375. D(C  31,C  30,C  29,C  28)   -114.5440         0.014417   
    376. D(C  31,C  30,C  29,N   5)     66.7503         0.014417   
    377. D(C  32,C  31,C  30,H  63)    163.5582         0.007812   
    378. D(C  32,C  31,C  30,H  62)    -77.1008         0.007812   
    379. D(C  32,C  31,C  30,C  29)     43.2632         0.007812   
    380. D(S   2,C  31,C  30,H  63)     39.9917         0.007812   
    381. D(S   2,C  31,C  30,H  62)    159.3326         0.007812   
    382. D(S   2,C  31,C  30,C  29)    -80.3034         0.007812   
    383. D(C  38,C  31,S   2,Fe  0)    156.0692         0.003240   
    384. D(C  32,C  31,S   2,Fe  0)    -81.6203         0.003240   
    385. D(C  30,C  31,S   2,Fe  0)     37.6909         0.003240   
    386. D(C  37,C  32,C  31,C  30)   -112.8407         0.011287   
    387. D(C  37,C  32,C  31,S   2)      7.3366         0.011287   
    388. D(C  33,C  32,C  31,C  38)    -56.8999         0.011287   
    389. D(C  33,C  32,C  31,C  30)     66.2929         0.011287   
    390. D(C  33,C  32,C  31,S   2)   -173.5298         0.011287   
    391. D(H  64,C  33,C  32,C  37)   -175.6592         0.025506   
    392. D(H  64,C  33,C  32,C  31)      5.1704         0.025506   
    393. D(C  34,C  33,C  32,C  37)      5.2381         0.025506   
    394. D(C  34,C  33,C  32,C  31)   -173.9323         0.025506   
    395. D(H  65,C  34,C  33,H  64)     -2.4500         0.028049   
    396. D(H  65,C  34,C  33,C  32)    176.6518         0.028049   
    397. D(C  35,C  34,C  33,H  64)    177.0669         0.028049   
    398. D(C  35,C  34,C  33,C  32)     -3.8313         0.028049   
    399. D(H  66,C  35,C  34,H  65)      0.9468         0.037755   
    400. D(H  66,C  35,C  34,C  33)   -178.5729         0.037755   
    401. D(C  36,C  35,C  34,H  65)   -179.2823         0.037755   
    402. D(C  36,C  35,C  34,C  33)      1.1980         0.037755   
    403. D(H  67,C  36,C  35,H  66)     -0.4964         0.029797   
    404. D(H  67,C  36,C  35,C  34)    179.7321         0.029797   
    405. D(C  37,C  36,C  35,H  66)    179.6962         0.029797   
    406. D(C  37,C  36,C  35,C  34)     -0.0754         0.029797   
    407. D(H  68,C  37,C  36,C  35)   -178.5980         0.023717   
    408. D(C  32,C  37,C  36,H  67)   -178.1613         0.023717   
    409. D(C  32,C  37,C  36,C  35)      1.6462         0.023717   
    410. D(H  68,C  37,C  32,C  33)    176.0373         0.028160   
    411. D(H  68,C  37,C  32,C  31)     -4.8201         0.028160   
    412. D(C  36,C  37,C  32,C  33)     -4.2062         0.028160   
    413. D(H  68,C  37,C  36,H  67)      1.5945         0.023717   
    414. D(C  36,C  37,C  32,C  31)    174.9364         0.028160   
    415. D(C  43,C  38,C  31,C  30)   -155.7206         0.008685   
    416. D(C  43,C  38,C  31,S   2)     88.0574         0.008685   
    417. D(C  39,C  38,C  31,C  32)    148.4551         0.008685   
    418. D(C  39,C  38,C  31,C  30)     27.8451         0.008685   
    419. D(C  39,C  38,C  31,S   2)    -88.3770         0.008685   
    420. D(H  69,C  39,C  38,C  43)   -179.1295         0.031571   
    421. D(H  69,C  39,C  38,C  31)     -2.7762         0.031571   
    422. D(C  40,C  39,C  38,C  43)      1.0465         0.031571   
    423. D(C  40,C  39,C  38,C  31)    177.3998         0.031571   
    424. D(H  70,C  40,C  39,H  69)      1.2928         0.018194   
    425. D(H  70,C  40,C  39,C  38)   -178.8851         0.018194   
    426. D(C  41,C  40,C  39,H  69)   -177.9867         0.018194   
    427. D(C  41,C  40,C  39,C  38)      1.8354         0.018194   
    428. D(H  71,C  41,C  40,H  70)     -3.1657         0.042025   
    429. D(H  71,C  41,C  40,C  39)    176.1100         0.042025   
    430. D(C  42,C  41,C  40,H  70)    175.8012         0.042025   
    431. D(C  42,C  41,C  40,C  39)     -4.9231         0.042025   
    432. D(H  72,C  42,C  41,H  71)      3.8307         0.041242   
    433. D(H  72,C  42,C  41,C  40)   -175.1415         0.041242   
    434. D(C  43,C  42,C  41,H  71)   -176.0104         0.041242   
    435. D(C  43,C  42,C  41,C  40)      5.0173         0.041242   
    436. D(H  73,C  43,C  42,H  72)     -1.9226         0.021380   
    437. D(H  73,C  43,C  42,C  41)    177.9238         0.021380   
    438. D(C  38,C  43,C  42,H  72)    178.0903         0.021380   
    439. D(C  38,C  43,C  42,C  41)     -2.0633         0.021380   
    440. D(H  73,C  43,C  38,C  39)    179.0735         0.031490   
    441. D(H  73,C  43,C  38,C  31)      2.6180         0.031490   
    442. D(C  42,C  43,C  38,C  39)     -0.9394         0.031490   
    443. D(C  42,C  43,C  38,C  31)   -177.3949         0.031490   
    -----------------------------------------------------------------

Number of atoms                         .... 74
Number of degrees of freedom            .... 443


         *************************************************************
         *                GEOMETRY OPTIMIZATION CYCLE   1            *
         *************************************************************
---------------------------------
CARTESIAN COORDINATES (ANGSTROEM)
---------------------------------
  Fe    -4.081800    1.789000   12.636100
  S     -2.378800    3.193500   12.925700
  S     -2.613400    0.967100   11.198500
  Cl    -5.819100    2.529100   11.301300
  N     -4.927700    2.359500   14.385000
  N     -4.806800   -0.034800   13.302100
  C     -5.345100    1.374300   15.136400
  C     -5.932600    1.558900   16.417700
  C     -6.088300    2.875700   16.823100
  C     -5.577400    3.904800   16.084700
  C     -5.009200    3.620300   14.842500
  C     -4.421100    4.722100   14.007100
  C     -2.897000    4.637400   13.971000
  C     -2.397200    4.495100   15.446200
  C     -2.504000    5.645400   16.229500
  C     -2.095000    5.509100   17.575900
  C     -1.676400    4.404300   18.068100
  C     -1.554200    3.299400   17.373200
  C     -1.942300    3.314600   15.954400
  C     -2.245900    5.842100   13.320900
  C     -2.925500    6.830400   12.672300
  C     -2.231100    7.885300   12.068600
  C     -0.911000    7.976100   12.103300
  C     -0.137100    7.007500   12.769300
  C     -0.877700    5.948100   13.377400
  C     -5.273100    0.021200   14.579000
  C     -5.671000   -1.104900   15.260900
  C     -5.613200   -2.330800   14.636900
  C     -5.149100   -2.370100   13.307900
  C     -4.755500   -1.198700   12.685300
  C     -4.290400   -1.247100   11.276700
  C     -2.760200   -0.859700   11.153600
  C     -2.028900   -1.566500   12.281400
  C     -1.952500   -2.961900   12.278500
  C     -1.399600   -3.623300   13.362900
  C     -0.863000   -2.936200   14.390800
  C     -0.862500   -1.558900   14.419800
  C     -1.443400   -0.880900   13.332500
  C     -2.188500   -1.215300    9.749300
  C     -2.996700   -1.247100    8.643200
  C     -2.383400   -1.528600    7.369100
  C     -1.076800   -1.785900    7.282300
  C     -0.282300   -1.695100    8.353600
  C     -0.839000   -1.424200    9.632000
  H     -6.239500    0.787000   16.986600
  H     -6.500200    3.073900   17.697500
  H     -5.639500    4.850800   16.410400
  H     -4.682900    5.603000   14.395100
  H     -4.767500    4.648000   13.073300
  H     -2.843100    6.505000   15.853000
  H     -2.143000    6.320400   18.165100
  H     -1.416200    4.395200   19.030900
  H     -1.218000    2.457900   17.809000
  H     -1.874100    2.497300   15.389800
  H     -3.921700    6.789600   12.630300
  H     -2.808000    8.601200   11.605300
  H     -0.439200    8.738900   11.656000
  H      0.803900    7.052900   12.806900
  H     -0.354700    5.248800   13.872500
  H     -5.999600   -1.042800   16.202000
  H     -5.881200   -3.170800   15.106000
  H     -5.110000   -3.238900   12.814200
  H     -4.419000   -2.173400   10.923400
  H     -4.831000   -0.603900   10.733700
  H     -2.309200   -3.482600   11.499600
  H     -1.389700   -4.623700   13.384600
  H     -0.452200   -3.435600   15.149400
  H     -0.465600   -1.057900   15.188500
  H     -1.437700    0.118100   13.318000
  H     -3.987400   -1.080600    8.727100
  H     -2.947900   -1.540700    6.546800
  H     -0.679600   -2.035700    6.402000
  H      0.696800   -1.814700    8.284100
  H     -0.251200   -1.386400   10.439800

----------------------------
CARTESIAN COORDINATES (A.U.)
----------------------------
  NO LB      ZA    FRAG     MASS         X           Y           Z
   0 Fe   26.0000    0    55.850   -7.713484    3.380720   23.878768
   1 S    16.0000    0    32.060   -4.495281    6.034840   24.426033
   2 S    16.0000    0    32.060   -4.938610    1.827554   21.162098
   3 Cl   17.0000    0    35.453  -10.996505    4.779306   21.356362
   4 N     7.0000    0    14.007   -9.312003    4.458809   27.183710
   5 N     7.0000    0    14.007   -9.083536   -0.065762   25.137326
   6 C     6.0000    0    12.011  -10.100775    2.597051   28.603651
   7 C     6.0000    0    12.011  -11.210989    2.945894   31.024957
   8 C     6.0000    0    12.011  -11.505220    5.434285   31.791052
   9 C     6.0000    0    12.011  -10.539759    7.379003   30.395678
  10 C     6.0000    0    12.011   -9.466016    6.841376   28.048260
  11 C     6.0000    0    12.011   -8.354668    8.923476   26.469583
  12 C     6.0000    0    12.011   -5.474537    8.763416   26.401364
  13 C     6.0000    0    12.011   -4.530051    8.494508   29.189088
  14 C     6.0000    0    12.011   -4.731874   10.668260   30.669310
  15 C     6.0000    0    12.011   -3.958976   10.410690   33.213638
  16 C     6.0000    0    12.011   -3.167937    8.322921   34.143761
  17 C     6.0000    0    12.011   -2.937012    6.234962   32.830590
  18 C     6.0000    0    12.011   -3.670415    6.263686   30.149447
  19 C     6.0000    0    12.011   -4.244136   11.039969   25.172853
  20 C     6.0000    0    12.011   -5.528394   12.907585   23.947176
  21 C     6.0000    0    12.011   -4.216168   14.901057   22.806349
  22 C     6.0000    0    12.011   -1.721541   15.072645   22.871922
  23 C     6.0000    0    12.011   -0.259081   13.242256   24.130480
  24 C     6.0000    0    12.011   -1.658613   11.240280   25.279622
  25 C     6.0000    0    12.011   -9.964715    0.040062   27.550317
  26 C     6.0000    0    12.011  -10.716637   -2.087958   28.838922
  27 C     6.0000    0    12.011  -10.607411   -4.404574   27.659732
  28 C     6.0000    0    12.011   -9.730389   -4.478840   25.148286
  29 C     6.0000    0    12.011   -8.986593   -2.265215   23.971743
  30 C     6.0000    0    12.011   -8.107681   -2.356677   21.309875
  31 C     6.0000    0    12.011   -5.216022   -1.624598   21.077249
  32 C     6.0000    0    12.011   -3.834065   -2.960256   23.208483
  33 C     6.0000    0    12.011   -3.689690   -5.597180   23.203002
  34 C     6.0000    0    12.011   -2.644861   -6.847045   25.252221
  35 C     6.0000    0    12.011   -1.630834   -5.548614   27.194671
  36 C     6.0000    0    12.011   -1.629889   -2.945894   27.249473
  37 C     6.0000    0    12.011   -2.727631   -1.664660   25.194774
  38 C     6.0000    0    12.011   -4.135666   -2.296584   18.423507
  39 C     6.0000    0    12.011   -5.662942   -2.356677   16.333281
  40 C     6.0000    0    12.011   -4.503973   -2.888635   13.925581
  41 C     6.0000    0    12.011   -2.034857   -3.374862   13.761553
  42 C     6.0000    0    12.011   -0.533470   -3.203275   15.786016
  43 C     6.0000    0    12.011   -1.585480   -2.691348   18.201842
  44 H     1.0000    0     1.008  -11.790946    1.487214   32.100022
  45 H     1.0000    0     1.008  -12.283598    5.808829   33.443428
  46 H     1.0000    0     1.008  -10.657111    9.166684   31.011162
  47 H     1.0000    0     1.008   -8.849399   10.588136   27.202797
  48 H     1.0000    0     1.008   -9.009269    8.783447   24.704957
  49 H     1.0000    0     1.008   -5.372680   12.292669   29.957828
  50 H     1.0000    0     1.008   -4.049683   11.943825   34.327064
  51 H     1.0000    0     1.008   -2.676230    8.305724   35.963189
  52 H     1.0000    0     1.008   -2.301686    4.644758   33.654133
  53 H     1.0000    0     1.008   -3.541536    4.719213   29.082507
  54 H     1.0000    0     1.008   -7.410939   12.830485   23.867808
  55 H     1.0000    0     1.008   -5.306351   16.253912   21.930839
  56 H     1.0000    0     1.008   -0.829968   16.514128   22.026648
  57 H     1.0000    0     1.008    1.519151   13.328049   24.201534
  58 H     1.0000    0     1.008   -0.670286    9.918795   26.215226
  59 H     1.0000    0     1.008  -11.337601   -1.970606   30.617343
  60 H     1.0000    0     1.008  -11.113857   -5.991944   28.546203
  61 H     1.0000    0     1.008   -9.656501   -6.120634   24.215329
  62 H     1.0000    0     1.008   -8.350700   -4.107131   20.642234
  63 H     1.0000    0     1.008   -9.129267   -1.141206   20.283753
  64 H     1.0000    0     1.008   -4.363756   -6.581160   21.731095
  65 H     1.0000    0     1.008   -2.626152   -8.737527   25.293228
  66 H     1.0000    0     1.008   -0.854534   -6.492343   28.628217
  67 H     1.0000    0     1.008   -0.879856   -1.999141   28.702105
  68 H     1.0000    0     1.008   -2.716859    0.223177   25.167373
  69 H     1.0000    0     1.008   -7.535094   -2.042038   16.491829
  70 H     1.0000    0     1.008   -5.570724   -2.911501   12.371659
  71 H     1.0000    0     1.008   -1.284258   -3.846915   12.098027
  72 H     1.0000    0     1.008    1.316761   -3.429286   15.654680
  73 H     1.0000    0     1.008   -0.474699   -2.619916   19.728363

--------------------------------
INTERNAL COORDINATES (ANGSTROEM)
--------------------------------
 Fe     0   0   0     0.000000000000     0.00000000     0.00000000
 S      1   0   0     2.226364168325     0.00000000     0.00000000
 S      1   2   0     2.213235624600    79.12088936     0.00000000
 Cl     1   2   3     2.312498722162   116.60544969   259.64424718
 N      1   2   3     2.024763756590    91.68839931   162.72113702
 N      1   2   3     2.072541299950   141.34454298    86.88247456
 C      5   1   2     1.307456982084   114.67450185   225.86438625
 C      7   5   1     1.421605817377   123.50903878   178.16347707
 C      8   7   5     1.386561895481   115.67385261     2.22540527
 C      9   8   7     1.365759927659   121.03146546   353.53916070
 C      5   1   2     1.343713191124   125.71834647    41.58446524
 C     11   5   1     1.502570467565   118.35894709   359.57232799
 C     12  11   5     1.526878551162   111.29389497   290.94811400
 C     13  12  11     1.564053825800   107.56093036   310.38964263
 C     14  13  12     1.395763310880   115.46019921   287.93451534
 C     15  14  13     1.413736768285   115.65018390   177.97375566
 C     16  15  14     1.279871024752   122.96298539   358.67384248
 C     17  16  15     1.310962570023   123.65337334     1.64748529
 C     14  13  12     1.363371372737   122.47803721   105.15418808
 C     13  12  11     1.515870479296   113.25316820   188.81424745
 C     20  13  12     1.363552349563   124.46732356   351.88076902
 C     21  20  13     1.399806793811   120.27241272   181.88071002
 C     22  21  20     1.323673955323   122.35192736   359.65075681
 C     23  22  21     1.407360355417   120.90422157   359.41036048
 C     20  13  12     1.373462591409   118.13619104   172.31933870
 C      6   1   2     1.360531256532   112.66011207    71.09692823
 C     26   6   1     1.375286599222   122.05976090   186.79610328
 C     27  26   6     1.376788890862   119.48567521   359.30072898
 C     28  27  26     1.408252214626   117.80125771   359.65162735
 C      6   1   2     1.318232581907   127.80587605   257.19322207
 C     30   6   1     1.484188172032   119.01621782   351.44664514
 C     31  30   6     1.583270163301   111.63407864    66.75030767
 C     32  31  30     1.518650311955   107.08474973    43.26319504
 C     33  32  31     1.397492944526   119.30778693    66.29288033
 C     34  33  32     1.385305644975   119.79642589   186.06767919
 C     35  34  33     1.347822087666   120.82981371   356.16868808
 C     36  35  34     1.377605364391   121.72690953     1.19797688
 C     33  32  31     1.384799198440   122.46995462   247.15929007
 C     32  31  30     1.557353761995   111.65589793   167.12572543
 C     39  32  31     1.370275771515   121.10853274    27.84507482
 C     40  39  32     1.441773196449   117.83799398   177.39982444
 C     41  40  39     1.334519048197   120.77058364     1.83542908
 C     42  41  40     1.336846505774   121.10833503   355.07692284
 C     39  32  31     1.370601601487   118.25646267   204.27941432
 H      8   7   5     1.006809033531   122.39153341   180.66128892
 H      9   8   7     0.986671277579   119.78570655   179.22853468
 H     10   9   8     1.002423513292   120.81375879   184.01601680
 H     12  11   5     0.997530976963   109.18180970   170.98775704
 H     12  11   5     0.998732301470   109.24918591    50.93981624
 H     15  14  13     0.997824243041   121.61605033   357.62276135
 H     16  15  14     1.003826842638   117.85549239   178.96608716
 H     17  16  15     0.997381917823   117.67380897   180.59075995
 H     18  17  16     1.005521919204   120.44864454   179.86627576
 H     19  14  13     0.995692568015   121.48148658     2.60929796
 H     21  20  13     0.997919375501   119.20472603     1.60896677
 H     22  21  20     1.029550052207   116.11195892   180.62308697
 H     23  22  21     1.002265618486   120.66186830   179.51011019
 H     24  23  22     0.942844589527   122.31344226   180.03971861
 H     25  20  13     1.003829417780   119.04743927   357.77611438
 H     27  26   6     0.998751010012   120.76256942   179.23002076
 H     28  27  26     0.998738609447   121.65085426   179.08176402
 H     29  28  27     1.000040969161   120.20044599   181.24297742
 H     31  30   6     0.999695223556   108.98457530   187.05238472
 H     31  30   6     1.000401719311   108.95541234   306.52921016
 H     34  33  32     1.002521116985   120.05118425     5.17036041
 H     35  34  33     1.000684295870   119.88280540   176.65183475
 H     36  35  34     0.996810393204   119.27877231   181.42707628
 H     37  36  35     0.999715109419   121.15548639   179.73205262
 H     38  33  32     0.999121484105   119.10595352   355.17987748
 H     40  39  32     1.008091240910   120.57187518   357.22382893
 H     41  40  39     0.997488821993   119.34953658   181.11488211
 H     42  41  40     0.997544971417   119.70442635   176.10999337
 H     43  42  41     0.988823149001   121.59595192   184.85848361
 H     44  39  32     0.999739225998   120.26410526     2.61804161

---------------------------
INTERNAL COORDINATES (A.U.)
---------------------------
 Fe     0   0   0     0.000000000000     0.00000000     0.00000000
 S      1   0   0     4.207218552509     0.00000000     0.00000000
 S      1   2   0     4.182409200333    79.12088936     0.00000000
 Cl     1   2   3     4.369989269929   116.60544969   259.64424718
 N      1   2   3     3.826248985844    91.68839931   162.72113702
 N      1   2   3     3.916535458147   141.34454298    86.88247456
 C      5   1   2     2.470735628022   114.67450185   225.86438625
 C      7   5   1     2.686445665232   123.50903878   178.16347707
 C      8   7   5     2.620222250190   115.67385261     2.22540527
 C      9   8   7     2.580912227960   121.03146546   353.53916070
 C      5   1   2     2.539249933761   125.71834647    41.58446524
 C     11   5   1     2.839446680617   118.35894709   359.57232799
 C     12  11   5     2.885382301456   111.29389497   290.94811400
 C     13  12  11     2.955633389474   107.56093036   310.38964263
 C     14  13  12     2.637610405339   115.46019921   287.93451534
 C     15  14  13     2.671575317513   115.65018390   177.97375566
 C     16  15  14     2.418605723523   122.96298539   358.67384248
 C     17  16  15     2.477360229164   123.65337334     1.64748529
 C     14  13  12     2.576398513302   122.47803721   105.15418808
 C     13  12  11     2.864580060365   113.25316820   188.81424745
 C     20  13  12     2.576740509940   124.46732356   351.88076902
 C     21  20  13     2.645251480706   120.27241272   181.88071002
 C     22  21  20     2.501381266164   122.35192736   359.65075681
 C     23  22  21     2.659525643477   120.90422157   359.41036048
 C     20  13  12     2.595468152949   118.13619104   172.31933870
 C      6   1   2     2.571031471485   112.66011207    71.09692823
 C     26   6   1     2.598915028182   122.05976090   186.79610328
 C     27  26   6     2.601753947954   119.48567521   359.30072898
 C     28  27  26     2.661211013132   117.80125771   359.65162735
 C      6   1   2     2.491098560615   127.80587605   257.19322207
 C     30   6   1     2.804709176346   119.01621782   351.44664514
 C     31  30   6     2.991947004648   111.63407864    66.75030767
 C     32  31  30     2.869833182788   107.08474973    43.26319504
 C     33  32  31     2.640878939241   119.30778693    66.29288033
 C     34  33  32     2.617848280778   119.79642589   186.06767919
 C     35  34  33     2.547014622939   120.82981371   356.16868808
 C     36  35  34     2.603296859321   121.72690953     1.19797688
 C     33  32  31     2.616891235525   122.46995462   247.15929007
 C     32  31  30     2.942972103803   111.65589793   167.12572543
 C     39  32  31     2.589445936110   121.10853274    27.84507482
 C     40  39  32     2.724556488518   117.83799398   177.39982444
 C     41  40  39     2.521875521593   120.77058364     1.83542908
 C     42  41  40     2.526273779002   121.10833503   355.07692284
 C     39  32  31     2.590061665525   118.25646267   204.27941432
 H      8   7   5     1.902593342532   122.39153341   180.66128892
 H      9   8   7     1.864538498831   119.78570655   179.22853468
 H     10   9   8     1.894305910324   120.81375879   184.01601680
 H     12  11   5     1.885060356562   109.18180970   170.98775704
 H     12  11   5     1.887330530880   109.24918591    50.93981624
 H     15  14  13     1.885614549134   121.61605033   357.62276135
 H     16  15  14     1.896957818464   117.85549239   178.96608716
 H     17  16  15     1.884778675610   117.67380897   180.59075995
 H     18  17  16     1.900161048951   120.44864454   179.86627576
 H     19  14  13     1.881586267129   121.48148658     2.60929796
 H     21  20  13     1.885794323430   119.20472603     1.60896677
 H     22  21  20     1.945567639836   116.11195892   180.62308697
 H     23  22  21     1.894007532385   120.66186830   179.51011019
 H     24  23  22     1.781718061055   122.31344226   180.03971861
 H     25  20  13     1.896962684777   119.04743927   357.77611438
 H     27  26   6     1.887365884900   120.76256942   179.23002076
 H     28  27  26     1.887342451228   121.65085426   179.08176402
 H     29  28  27     1.889803554415   120.20044599   181.24297742
 H     31  30   6     1.889150189909   108.98457530   187.05238472
 H     31  30   6     1.890485273401   108.95541234   306.52921016
 H     34  33  32     1.894490354574   120.05118425     5.17036041
 H     35  34  33     1.891019265709   119.88280540   176.65183475
 H     36  35  34     1.883698650602   119.27877231   181.42707628
 H     37  36  35     1.889187768744   121.15548639   179.73205262
 H     38  33  32     1.888065979475   119.10595352   355.17987748
 H     40  39  32     1.905016363325   120.57187518   357.22382893
 H     41  40  39     1.884980695214   119.34953658   181.11488211
 H     42  41  40     1.885086802249   119.70442635   176.10999337
 H     43  42  41     1.868604946493   121.59595192   184.85848361
 H     44  39  32     1.889233342475   120.26410526     2.61804161

---------------------
BASIS SET INFORMATION
---------------------
There are 6 groups of distinct atoms

 Group   1 Type Fe  : 17s11p7d1f contracted to 6s4p4d1f pattern {842111/6311/4111/1}
 Group   2 Type S   : 14s9p3d1f contracted to 5s5p2d1f pattern {73211/51111/21/1}
 Group   3 Type Cl  : 14s9p3d1f contracted to 5s5p2d1f pattern {73211/51111/21/1}
 Group   4 Type N   : 11s6p2d1f contracted to 5s3p2d1f pattern {62111/411/11/1}
 Group   5 Type C   : 11s6p2d1f contracted to 5s3p2d1f pattern {62111/411/11/1}
 Group   6 Type H   : 5s1p contracted to 3s1p pattern {311/1}

Atom   0Fe   basis set group =>   1
Atom   1S    basis set group =>   2
Atom   2S    basis set group =>   2
Atom   3Cl   basis set group =>   3
Atom   4N    basis set group =>   4
Atom   5N    basis set group =>   4
Atom   6C    basis set group =>   5
Atom   7C    basis set group =>   5
Atom   8C    basis set group =>   5
Atom   9C    basis set group =>   5
Atom  10C    basis set group =>   5
Atom  11C    basis set group =>   5
Atom  12C    basis set group =>   5
Atom  13C    basis set group =>   5
Atom  14C    basis set group =>   5
Atom  15C    basis set group =>   5
Atom  16C    basis set group =>   5
Atom  17C    basis set group =>   5
Atom  18C    basis set group =>   5
Atom  19C    basis set group =>   5
Atom  20C    basis set group =>   5
Atom  21C    basis set group =>   5
Atom  22C    basis set group =>   5
Atom  23C    basis set group =>   5
Atom  24C    basis set group =>   5
Atom  25C    basis set group =>   5
Atom  26C    basis set group =>   5
Atom  27C    basis set group =>   5
Atom  28C    basis set group =>   5
Atom  29C    basis set group =>   5
Atom  30C    basis set group =>   5
Atom  31C    basis set group =>   5
Atom  32C    basis set group =>   5
Atom  33C    basis set group =>   5
Atom  34C    basis set group =>   5
Atom  35C    basis set group =>   5
Atom  36C    basis set group =>   5
Atom  37C    basis set group =>   5
Atom  38C    basis set group =>   5
Atom  39C    basis set group =>   5
Atom  40C    basis set group =>   5
Atom  41C    basis set group =>   5
Atom  42C    basis set group =>   5
Atom  43C    basis set group =>   5
Atom  44H    basis set group =>   6
Atom  45H    basis set group =>   6
Atom  46H    basis set group =>   6
Atom  47H    basis set group =>   6
Atom  48H    basis set group =>   6
Atom  49H    basis set group =>   6
Atom  50H    basis set group =>   6
Atom  51H    basis set group =>   6
Atom  52H    basis set group =>   6
Atom  53H    basis set group =>   6
Atom  54H    basis set group =>   6
Atom  55H    basis set group =>   6
Atom  56H    basis set group =>   6
Atom  57H    basis set group =>   6
Atom  58H    basis set group =>   6
Atom  59H    basis set group =>   6
Atom  60H    basis set group =>   6
Atom  61H    basis set group =>   6
Atom  62H    basis set group =>   6
Atom  63H    basis set group =>   6
Atom  64H    basis set group =>   6
Atom  65H    basis set group =>   6
Atom  66H    basis set group =>   6
Atom  67H    basis set group =>   6
Atom  68H    basis set group =>   6
Atom  69H    basis set group =>   6
Atom  70H    basis set group =>   6
Atom  71H    basis set group =>   6
Atom  72H    basis set group =>   6
Atom  73H    basis set group =>   6
---------------------------------
AUXILIARY/J BASIS SET INFORMATION
---------------------------------
There are 6 groups of distinct atoms

 Group   1 Type Fe  : 19s5p5d3f3g contracted to 8s5p5d2f3g pattern {121111111/11111/11111/21/111}
 Group   2 Type S   : 14s5p5d2f1g contracted to 8s4p3d1f1g pattern {71111111/2111/311/2/1}
 Group   3 Type Cl  : 14s5p5d2f1g contracted to 8s4p3d1f1g pattern {71111111/2111/311/2/1}
 Group   4 Type N   : 12s5p4d2f1g contracted to 6s4p3d1f1g pattern {711111/2111/211/2/1}
 Group   5 Type C   : 12s5p4d2f1g contracted to 6s4p3d1f1g pattern {711111/2111/211/2/1}
 Group   6 Type H   : 5s2p1d contracted to 3s1p1d pattern {311/2/1}

Atom   0Fe   basis set group =>   1
Atom   1S    basis set group =>   2
Atom   2S    basis set group =>   2
Atom   3Cl   basis set group =>   3
Atom   4N    basis set group =>   4
Atom   5N    basis set group =>   4
Atom   6C    basis set group =>   5
Atom   7C    basis set group =>   5
Atom   8C    basis set group =>   5
Atom   9C    basis set group =>   5
Atom  10C    basis set group =>   5
Atom  11C    basis set group =>   5
Atom  12C    basis set group =>   5
Atom  13C    basis set group =>   5
Atom  14C    basis set group =>   5
Atom  15C    basis set group =>   5
Atom  16C    basis set group =>   5
Atom  17C    basis set group =>   5
Atom  18C    basis set group =>   5
Atom  19C    basis set group =>   5
Atom  20C    basis set group =>   5
Atom  21C    basis set group =>   5
Atom  22C    basis set group =>   5
Atom  23C    basis set group =>   5
Atom  24C    basis set group =>   5
Atom  25C    basis set group =>   5
Atom  26C    basis set group =>   5
Atom  27C    basis set group =>   5
Atom  28C    basis set group =>   5
Atom  29C    basis set group =>   5
Atom  30C    basis set group =>   5
Atom  31C    basis set group =>   5
Atom  32C    basis set group =>   5
Atom  33C    basis set group =>   5
Atom  34C    basis set group =>   5
Atom  35C    basis set group =>   5
Atom  36C    basis set group =>   5
Atom  37C    basis set group =>   5
Atom  38C    basis set group =>   5
Atom  39C    basis set group =>   5
Atom  40C    basis set group =>   5
Atom  41C    basis set group =>   5
Atom  42C    basis set group =>   5
Atom  43C    basis set group =>   5
Atom  44H    basis set group =>   6
Atom  45H    basis set group =>   6
Atom  46H    basis set group =>   6
Atom  47H    basis set group =>   6
Atom  48H    basis set group =>   6
Atom  49H    basis set group =>   6
Atom  50H    basis set group =>   6
Atom  51H    basis set group =>   6
Atom  52H    basis set group =>   6
Atom  53H    basis set group =>   6
Atom  54H    basis set group =>   6
Atom  55H    basis set group =>   6
Atom  56H    basis set group =>   6
Atom  57H    basis set group =>   6
Atom  58H    basis set group =>   6
Atom  59H    basis set group =>   6
Atom  60H    basis set group =>   6
Atom  61H    basis set group =>   6
Atom  62H    basis set group =>   6
Atom  63H    basis set group =>   6
Atom  64H    basis set group =>   6
Atom  65H    basis set group =>   6
Atom  66H    basis set group =>   6
Atom  67H    basis set group =>   6
Atom  68H    basis set group =>   6
Atom  69H    basis set group =>   6
Atom  70H    basis set group =>   6
Atom  71H    basis set group =>   6
Atom  72H    basis set group =>   6
Atom  73H    basis set group =>   6


           ************************************************************
           *        Program running with 16 parallel MPI-processes    *
           *              working on a common directory               *
           ************************************************************
------------------------------------------------------------------------------
                             ORCA STARTUP CALCULATIONS
                           -- RI-GTO INTEGRALS CHOSEN --
------------------------------------------------------------------------------
------------------------------------------------------------------------------
                   ___                                                        
                  /   \      - P O W E R E D   B Y -                         
                 /     \                                                     
                 |  |  |   _    _      __       _____    __    __             
                 |  |  |  | |  | |    /  \     |  _  \  |  |  /  |          
                  \  \/   | |  | |   /    \    | | | |  |  | /  /          
                 / \  \   | |__| |  /  /\  \   | |_| |  |  |/  /          
                |  |  |   |  __  | /  /__\  \  |    /   |      \           
                |  |  |   | |  | | |   __   |  |    \   |  |\   \          
                \     /   | |  | | |  |  |  |  | |\  \  |  | \   \       
                 \___/    |_|  |_| |__|  |__|  |_| \__\ |__|  \__/        
                                                                              
                      - O R C A' S   B I G   F R I E N D -                    
                                      &                                       
                       - I N T E G R A L  F E E D E R -                       
                                                                              
 v1 FN, 2020, v2 2021, v3 2022-2024                                           
------------------------------------------------------------------------------


----------------------
SHARK INTEGRAL PACKAGE
----------------------

Number of atoms                             ...     74
Number of basis functions                   ...   1576
Number of shells                            ...    614
Maximum angular momentum                    ...      3
Integral batch strategy                     ... SHARK/LIBINT Hybrid
RI-J (if used) integral strategy            ... SPLIT-RIJ (Revised 2003 algorithm where possible)
Printlevel                                  ...      1
Contraction scheme used                     ... SEGMENTED contraction
Prescreening option                         ... SCHWARTZ
   Thresh                                   ... 2.500e-11
   Tcut                                     ... 2.500e-12
   Tpresel                                  ... 2.500e-12 
Coulomb Range Separation                    ... NOT USED
Exchange Range Separation                   ... NOT USED
Multipole approximations                    ... NOT USED
Finite Nucleus Model                        ... NOT USED
CABS basis                                  ... NOT available
Auxiliary Coulomb fitting basis             ... AVAILABLE
   # of basis functions in Aux-J            ...   2532
   # of shells in Aux-J                     ...    824
   Maximum angular momentum in Aux-J        ...      4
Auxiliary J/K fitting basis                 ... NOT available
Auxiliary Correlation fitting basis         ... NOT available
Auxiliary 'external' fitting basis          ... NOT available

Checking pre-screening integrals            ... done (  0.0 sec) Dimension = 614
Check shell pair data                       ... done (  0.0 sec)
Shell pair information
Shell pair cut-off parameter TPreSel        ...   2.5e-12
Total number of shell pairs                 ...    188805
Shell pairs after pre-screening             ...    105361
Total number of primitive shell pairs       ...    603390
Primitive shell pairs kept                  ...    206338
          la=0 lb=0:  25715 shell pairs
          la=1 lb=0:  31084 shell pairs
          la=1 lb=1:   9379 shell pairs
          la=2 lb=0:  14929 shell pairs
          la=2 lb=1:   9118 shell pairs
          la=2 lb=2:   2200 shell pairs
          la=3 lb=0:   6532 shell pairs
          la=3 lb=1:   4088 shell pairs
          la=3 lb=2:   1879 shell pairs
          la=3 lb=3:    437 shell pairs

Calculating one electron integrals          ... done (  0.1 sec)
done (  0.4 sec)
Calculating Nuclear repulsion               ... done (  0.0 sec) ENN=   6866.884985628419 Eh

Diagonalization of the overlap matrix:
Smallest eigenvalue                        ... 4.657e-06
Time for diagonalization                   ...    0.257 sec
Threshold for overlap eigenvalues          ... 1.000e-07
Number of eigenvalues below threshold      ... 0
Time for construction of square roots      ...    0.282 sec
Total time needed                          ...    0.575 sec

-------------------
DFT GRID GENERATION
-------------------

General Integration Accuracy     IntAcc      ... 4.959
Radial Grid Type                 RadialGrid  ... OptM3 with GC (2021)
Angular Grid (max. ang.)         AngularGrid ... 6 (Lebedev-590)
Angular grid pruning method      GridPruning ... 4 (adaptive)
Weight generation scheme         WeightScheme... mBecke (2022)
Basis function cutoff            BFCut       ... 1.0000e-11
Integration weight cutoff        WCut        ... 1.0000e-14
Partially contracted basis set               ... off
Rotationally invariant grid construction     ... off
Angular grids for H and He will be reduced by one unit
Core-polarized basis detected: some atoms will have their core
                               angular grid increased.

Total number of grid points                  ...   884261
Total number of batches                      ...    13850
Average number of points per batch           ...       63
Average number of grid points per atom       ...    11949

--------------------
COSX GRID GENERATION
--------------------

GRIDX 1
-------
General Integration Accuracy     IntAcc      ... 4.020
Radial Grid Type                 RadialGrid  ... OptM3 with GC (2021)
Angular Grid (max. ang.)         AngularGrid ... 2 (Lebedev-110)
Angular grid pruning method      GridPruning ... 4 (adaptive)
Weight generation scheme         WeightScheme... mBecke (2022)
Basis function cutoff            BFCut       ... 1.0000e-11
Integration weight cutoff        WCut        ... 1.0000e-14
Partially contracted basis set               ... on
Rotationally invariant grid construction     ... off
Angular grids for H and He will be reduced by one unit
[...]
  (1) The electronic state is orbitally nondegenerate
      but the spin degeneracy is treated
  (2) There are no thermally accessible electronically excited states
  (3) Hindered rotations indicated by low frequency modes are not
      treated as such but are treated as vibrations and this may
      cause some error
  (4) All equations used are the standard statistical mechanics
      equations for an ideal gas
  (5) All vibrations are strictly harmonic

freq.      15.59  E(vib)   ...       0.57 
freq.      19.14  E(vib)   ...       0.57 
freq.      23.39  E(vib)   ...       0.56 
freq.      34.87  E(vib)   ...       0.54 
freq.      37.28  E(vib)   ...       0.54 
freq.      41.74  E(vib)   ...       0.53 
freq.      46.54  E(vib)   ...       0.53 
freq.      49.83  E(vib)   ...       0.52 
freq.      56.25  E(vib)   ...       0.52 
freq.      58.22  E(vib)   ...       0.51 
freq.      68.35  E(vib)   ...       0.50 
freq.      71.59  E(vib)   ...       0.50 
freq.      76.66  E(vib)   ...       0.49 
freq.      86.61  E(vib)   ...       0.48 
freq.     104.98  E(vib)   ...       0.46 
freq.     111.11  E(vib)   ...       0.45 
freq.     130.41  E(vib)   ...       0.43 
freq.     139.11  E(vib)   ...       0.42 
freq.     144.40  E(vib)   ...       0.41 
freq.     176.10  E(vib)   ...       0.38 
freq.     180.17  E(vib)   ...       0.37 
freq.     191.42  E(vib)   ...       0.36 
freq.     197.61  E(vib)   ...       0.35 
freq.     213.83  E(vib)   ...       0.34 
freq.     227.39  E(vib)   ...       0.33 
freq.     239.09  E(vib)   ...       0.32 
freq.     248.45  E(vib)   ...       0.31 
freq.     260.19  E(vib)   ...       0.30 
freq.     261.05  E(vib)   ...       0.30 
freq.     269.92  E(vib)   ...       0.29 
freq.     275.85  E(vib)   ...       0.28 
freq.     285.19  E(vib)   ...       0.28 
freq.     299.98  E(vib)   ...       0.26 
freq.     316.56  E(vib)   ...       0.25 
freq.     321.93  E(vib)   ...       0.25 
freq.     338.04  E(vib)   ...       0.24 
freq.     342.57  E(vib)   ...       0.23 
freq.     352.91  E(vib)   ...       0.22 
freq.     378.17  E(vib)   ...       0.21 
freq.     380.15  E(vib)   ...       0.21 
freq.     396.00  E(vib)   ...       0.20 
freq.     410.19  E(vib)   ...       0.19 
freq.     410.70  E(vib)   ...       0.19 
freq.     418.17  E(vib)   ...       0.18 
freq.     418.48  E(vib)   ...       0.18 
freq.     424.12  E(vib)   ...       0.18 
freq.     436.17  E(vib)   ...       0.17 
freq.     459.28  E(vib)   ...       0.16 
freq.     468.73  E(vib)   ...       0.16 
freq.     488.36  E(vib)   ...       0.15 
freq.     490.73  E(vib)   ...       0.14 
freq.     513.39  E(vib)   ...       0.13 
freq.     521.18  E(vib)   ...       0.13 
freq.     523.63  E(vib)   ...       0.13 
freq.     546.02  E(vib)   ...       0.12 
freq.     577.59  E(vib)   ...       0.11 
freq.     597.75  E(vib)   ...       0.10 
freq.     600.34  E(vib)   ...       0.10 
freq.     613.02  E(vib)   ...       0.10 
freq.     626.07  E(vib)   ...       0.09 
freq.     630.38  E(vib)   ...       0.09 
freq.     630.53  E(vib)   ...       0.09 
freq.     631.06  E(vib)   ...       0.09 
freq.     631.13  E(vib)   ...       0.09 
freq.     660.43  E(vib)   ...       0.08 
freq.     668.63  E(vib)   ...       0.08 
freq.     680.08  E(vib)   ...       0.08 
freq.     681.86  E(vib)   ...       0.08 
freq.     709.63  E(vib)   ...       0.07 
freq.     710.26  E(vib)   ...       0.07 
freq.     714.19  E(vib)   ...       0.07 
freq.     720.37  E(vib)   ...       0.07 
freq.     720.80  E(vib)   ...       0.07 
freq.     733.48  E(vib)   ...       0.06 
freq.     751.55  E(vib)   ...       0.06 
freq.     761.68  E(vib)   ...       0.06 
freq.     763.66  E(vib)   ...       0.06 
freq.     776.06  E(vib)   ...       0.05 
freq.     781.81  E(vib)   ...       0.05 
freq.     782.06  E(vib)   ...       0.05 
freq.     809.98  E(vib)   ...       0.05 
freq.     826.31  E(vib)   ...       0.04 
freq.     832.11  E(vib)   ...       0.04 
freq.     844.63  E(vib)   ...       0.04 
freq.     852.16  E(vib)   ...       0.04 
freq.     852.63  E(vib)   ...       0.04 
freq.     859.83  E(vib)   ...       0.04 
freq.     867.34  E(vib)   ...       0.04 
freq.     867.95  E(vib)   ...       0.04 
freq.     901.91  E(vib)   ...       0.03 
freq.     905.07  E(vib)   ...       0.03 
freq.     919.96  E(vib)   ...       0.03 
freq.     926.61  E(vib)   ...       0.03 
freq.     928.70  E(vib)   ...       0.03 
freq.     934.04  E(vib)   ...       0.03 
freq.     945.40  E(vib)   ...       0.03 
freq.     956.98  E(vib)   ...       0.03 
freq.     967.75  E(vib)   ...       0.03 
freq.     968.08  E(vib)   ...       0.03 
freq.     979.93  E(vib)   ...       0.02 
freq.     980.43  E(vib)   ...       0.02 
freq.     983.91  E(vib)   ...       0.02 
freq.     984.73  E(vib)   ...       0.02 
freq.     985.73  E(vib)   ...       0.02 
freq.     990.52  E(vib)   ...       0.02 
freq.     992.46  E(vib)   ...       0.02 
freq.     999.68  E(vib)   ...       0.02 
freq.    1006.46  E(vib)   ...       0.02 
freq.    1011.59  E(vib)   ...       0.02 
freq.    1021.82  E(vib)   ...       0.02 
freq.    1022.74  E(vib)   ...       0.02 
freq.    1023.08  E(vib)   ...       0.02 
freq.    1023.23  E(vib)   ...       0.02 
freq.    1025.09  E(vib)   ...       0.02 
freq.    1046.09  E(vib)   ...       0.02 
freq.    1049.31  E(vib)   ...       0.02 
freq.    1050.99  E(vib)   ...       0.02 
freq.    1052.75  E(vib)   ...       0.02 
freq.    1064.23  E(vib)   ...       0.02 
freq.    1064.69  E(vib)   ...       0.02 
freq.    1068.59  E(vib)   ...       0.02 
freq.    1069.61  E(vib)   ...       0.02 
freq.    1108.31  E(vib)   ...       0.02 
freq.    1109.30  E(vib)   ...       0.02 
freq.    1120.83  E(vib)   ...       0.01 
freq.    1121.63  E(vib)   ...       0.01 
freq.    1124.73  E(vib)   ...       0.01 
freq.    1144.14  E(vib)   ...       0.01 
freq.    1159.66  E(vib)   ...       0.01 
freq.    1177.11  E(vib)   ...       0.01 
freq.    1177.31  E(vib)   ...       0.01 
freq.    1179.19  E(vib)   ...       0.01 
freq.    1179.35  E(vib)   ...       0.01 
freq.    1183.54  E(vib)   ...       0.01 
freq.    1187.92  E(vib)   ...       0.01 
freq.    1200.13  E(vib)   ...       0.01 
freq.    1200.75  E(vib)   ...       0.01 
freq.    1204.30  E(vib)   ...       0.01 
freq.    1211.07  E(vib)   ...       0.01 
freq.    1212.13  E(vib)   ...       0.01 
freq.    1212.49  E(vib)   ...       0.01 
freq.    1224.17  E(vib)   ...       0.01 
freq.    1225.13  E(vib)   ...       0.01 
freq.    1234.66  E(vib)   ...       0.01 
freq.    1236.74  E(vib)   ...       0.01 
freq.    1282.33  E(vib)   ...       0.01 
freq.    1287.31  E(vib)   ...       0.01 
freq.    1324.66  E(vib)   ...       0.01 
freq.    1329.79  E(vib)   ...       0.01 
freq.    1335.37  E(vib)   ...       0.01 
freq.    1336.77  E(vib)   ...       0.01 
freq.    1342.95  E(vib)   ...       0.01 
freq.    1344.17  E(vib)   ...       0.01 
freq.    1352.50  E(vib)   ...       0.01 
freq.    1355.78  E(vib)   ...       0.01 
freq.    1365.93  E(vib)   ...       0.01 
freq.    1366.34  E(vib)   ...       0.01 
freq.    1370.83  E(vib)   ...       0.01 
freq.    1372.12  E(vib)   ...       0.01 
freq.    1380.93  E(vib)   ...       0.01 
freq.    1459.07  E(vib)   ...       0.00 
freq.    1470.10  E(vib)   ...       0.00 
freq.    1478.55  E(vib)   ...       0.00 
freq.    1479.86  E(vib)   ...       0.00 
freq.    1481.29  E(vib)   ...       0.00 
freq.    1481.61  E(vib)   ...       0.00 
freq.    1486.50  E(vib)   ...       0.00 
freq.    1486.76  E(vib)   ...       0.00 
freq.    1517.39  E(vib)   ...       0.00 
freq.    1527.28  E(vib)   ...       0.00 
freq.    1529.54  E(vib)   ...       0.00 
freq.    1529.84  E(vib)   ...       0.00 
freq.    1535.41  E(vib)   ...       0.00 
freq.    1535.62  E(vib)   ...       0.00 
freq.    1635.77  E(vib)   ...       0.00 
freq.    1642.37  E(vib)   ...       0.00 
freq.    1643.74  E(vib)   ...       0.00 
freq.    1644.77  E(vib)   ...       0.00 
freq.    1648.46  E(vib)   ...       0.00 
freq.    1648.78  E(vib)   ...       0.00 
freq.    1664.29  E(vib)   ...       0.00 
freq.    1664.53  E(vib)   ...       0.00 
freq.    1666.88  E(vib)   ...       0.00 
freq.    1667.32  E(vib)   ...       0.00 
freq.    1667.77  E(vib)   ...       0.00 
freq.    1673.91  E(vib)   ...       0.00 
freq.    3055.80  E(vib)   ...       0.00 
freq.    3059.39  E(vib)   ...       0.00 
freq.    3113.05  E(vib)   ...       0.00 
freq.    3117.47  E(vib)   ...       0.00 
freq.    3177.53  E(vib)   ...       0.00 
freq.    3178.39  E(vib)   ...       0.00 
freq.    3183.37  E(vib)   ...       0.00 
freq.    3183.47  E(vib)   ...       0.00 
freq.    3185.06  E(vib)   ...       0.00 
freq.    3185.31  E(vib)   ...       0.00 
freq.    3191.68  E(vib)   ...       0.00 
freq.    3191.83  E(vib)   ...       0.00 
freq.    3194.61  E(vib)   ...       0.00 
freq.    3195.00  E(vib)   ...       0.00 
freq.    3201.54  E(vib)   ...       0.00 
freq.    3202.01  E(vib)   ...       0.00 
freq.    3202.78  E(vib)   ...       0.00 
freq.    3203.02  E(vib)   ...       0.00 
freq.    3205.95  E(vib)   ...       0.00 
freq.    3206.81  E(vib)   ...       0.00 
freq.    3209.95  E(vib)   ...       0.00 
freq.    3210.16  E(vib)   ...       0.00 
freq.    3210.57  E(vib)   ...       0.00 
freq.    3210.62  E(vib)   ...       0.00 
freq.    3218.57  E(vib)   ...       0.00 
freq.    3219.70  E(vib)   ...       0.00 
freq.    3227.88  E(vib)   ...       0.00 
freq.    3229.31  E(vib)   ...       0.00 
freq.    3233.40  E(vib)   ...       0.00 
freq.    3242.55  E(vib)   ...       0.00 

------------
INNER ENERGY
------------

The inner energy is: U= E(el) + E(ZPE) + E(vib) + E(rot) + E(trans)
    E(el)   - is the total energy from the electronic structure calculation
              = E(kin-el) + E(nuc-el) + E(el-el) + E(nuc-nuc)
    E(ZPE)  - the the zero temperature vibrational energy from the frequency calculation
    E(vib)  - the the finite temperature correction to E(ZPE) due to population
              of excited vibrational states
    E(rot)  - is the rotational thermal energy
    E(trans)- is the translational thermal energy

Summary of contributions to the inner energy U:
Electronic energy                ...  -4094.11299761 Eh
Zero point energy                ...      0.58187555 Eh     365.13 kcal/mol
Thermal vibrational correction   ...      0.03420492 Eh      21.46 kcal/mol
Thermal rotational correction    ...      0.00141627 Eh       0.89 kcal/mol
Thermal translational correction ...      0.00141627 Eh       0.89 kcal/mol
-----------------------------------------------------------------------
Total thermal energy                  -4093.49408459 Eh


Summary of corrections to the electronic energy:
(perhaps to be used in another calculation)
Total thermal correction                  0.03703747 Eh      23.24 kcal/mol
Non-thermal (ZPE) correction              0.58187555 Eh     365.13 kcal/mol
-----------------------------------------------------------------------
Total correction                          0.61891301 Eh     388.37 kcal/mol


--------
ENTHALPY
--------

The enthalpy is H = U + kB*T
                kB is Boltzmann's constant
Total thermal energy              ...  -4093.49408459 Eh 
Thermal Enthalpy correction       ...      0.00094421 Eh       0.59 kcal/mol
-----------------------------------------------------------------------
Total Enthalpy                    ...  -4093.49314039 Eh


Note: Only C1 symmetry has been detected, increase convergence thresholds 
      if your molecule has a higher symmetry. Symmetry factor of 1.0 is   
      used for the rotational entropy correction. 
 

Note: Rotational entropy computed according to Herzberg 
Infrared and Raman Spectra, Chapter V,1, Van Nostrand Reinhold, 1945 
Point Group:  C1, Symmetry Number:   1  
Rotational constants in cm-1:     0.003381     0.001790     0.001476 

Vibrational entropy computed according to the QRRHO of S. Grimme
Chem.Eur.J. 2012 18 9955 using a reference frequency of 100.0 cm-1


-------
ENTROPY
-------

The entropy contributions are T*S = T*(S(el)+S(vib)+S(rot)+S(trans))
     S(el)   - electronic entropy
     S(vib)  - vibrational entropy
     S(rot)  - rotational entropy
     S(trans)- translational entropy
The entropies will be listed as multiplied by the temperature to get
units of energy

Electronic entropy                ...      0.00065446 Eh      0.41 kcal/mol
Vibrational entropy               ...      0.06074945 Eh     38.12 kcal/mol
Rotational entropy                ...      0.01826022 Eh     11.46 kcal/mol
Translational entropy             ...      0.02156534 Eh     13.53 kcal/mol
-----------------------------------------------------------------------
Final entropy term                ...      0.10122947 Eh     63.52 kcal/mol

In case the symmetry of your molecule has not been determined correctly
or in case you have a reason to use a different symmetry number we print 
out the resulting rotational entropy values for sn=1,12:

 non-linear molecules -----------------------------------
|  sn= 1 | S(rot)=       0.01826022 Eh     11.46 kcal/mol|
|  sn= 2 | S(rot)=       0.01760576 Eh     11.05 kcal/mol|
|  sn= 3 | S(rot)=       0.01722293 Eh     10.81 kcal/mol|
|  sn= 4 | S(rot)=       0.01695130 Eh     10.64 kcal/mol|
|  sn= 5 | S(rot)=       0.01674062 Eh     10.50 kcal/mol|
|  sn= 6 | S(rot)=       0.01656847 Eh     10.40 kcal/mol|
|  sn= 7 | S(rot)=       0.01642292 Eh     10.31 kcal/mol|
|  sn= 8 | S(rot)=       0.01629685 Eh     10.23 kcal/mol|
|  sn= 9 | S(rot)=       0.01618564 Eh     10.16 kcal/mol|
|  sn=10 | S(rot)=       0.01608616 Eh     10.09 kcal/mol|
|  sn=11 | S(rot)=       0.01599617 Eh     10.04 kcal/mol|
|  sn=12 | S(rot)=       0.01591401 Eh      9.99 kcal/mol|
 linear molecules ---------------------------------------
|  Dinfh | S(rot)=       0.01148009 Eh      7.20 kcal/mol|
|  Cinfv | S(rot)=       0.01213454 Eh      7.61 kcal/mol|
 --------------------------------------------------------


-------------------
GIBBS FREE ENERGY
-------------------

The Gibbs free energy is G = H - T*S

Total enthalpy                    ...  -4093.49314039 Eh 
Total entropy correction          ...     -0.10122947 Eh    -63.52 kcal/mol
-----------------------------------------------------------------------
Final Gibbs free energy         ...  -4093.59436985 Eh

For completeness - the Gibbs free energy minus the electronic energy
G-E(el)                           ...      0.51862775 Eh    325.44 kcal/mol


Maximum memory used throughout the entire PROP-calculation: 1798.0 MB

--------------------------------
SUGGESTED CITATIONS FOR THIS RUN
--------------------------------

Below you find a list of papers that are relevant to this ORCA run
We neither can nor want to force you to cite these papers, but we appreciate if you do
You receive ORCA, which is the product of decades of hard work by many enthusiastic individuals, for free
The only thing we kindly ask in return is that you cite our papers,
We deeply appreciate it, if you show your appreciation for ORCA by not just citing the generic ORCA reference.

Please note that relegating all ORCA citations to the supporting information does *not* help us.
SI sections are not indexed - citations you put there will not count into any citation statistics
But we need these citations in order to attract the funding resources that allow us to do what we are doing

Therefore, if you are a happy ORCA user, please consider citing a few of the papers listed below in the main body of your paper

In addition to the list printed below, the program has created the file SELQIJ-S4.bibtex that contains the list in bibtex format
You can import this file easily into all common literature databanks and citation aid programs


List of essential papers. We consider these as the minimum necessary citations

  1. Neese,F.
     Software update: the ORCA program system, version 5.0
     WIRES Comput. Molec. Sci., 2022 12(1)e1606
     doi.org/10.1002/wcms.1606

List of papers to cite with high priority. The work reported in these papers was absolutely
necessary for this run to complete.
Our perspective: the developers of density functionals and basis sets usually get cited in chemistry papers
Good! But without the algorithms to do something with them, the functionals or basis sets would not do anything.
Hence, in our opinion, the algorithm design and method developments papers are equally worthy of getting cited

  1. Neese,F.
     An improvement of the resolution of the identity approximation for the formation of the Coulomb matrix
     J. Comp. Chem., 2003 24(14)1740-1747
     doi.org/10.1002/jcc.10318
  2. Neese,F.; Wennmohs,F.; Hansen,A.; Becker,U.
     Efficient, approximate and parallel Hartree-Fock and hybrid DFT calculations. A 'chain-of-spheres' algorithm for the Hartree-Fock exchange
     Chem. Phys., 2009 356(1-3)98-109
     doi.org/10.1016/j.chemphys.2008.10.036
  3. Bykov,D.; Petrenko,T.; Izsak,R.; Kossmann,S.; Becker,U.; Valeev,E.; Neese,F.
     Efficient implementation of the analytic second derivatives of Hartree-Fock and hybrid DFT energies: a detailed analysis of different approximations
     Molec. Phys., 2015 113 1961-1977
     doi.org/10.1080/00268976.2015.1025114
  4. Helmich-Paris,B.; de Souza,B.; Neese,F.; Izsák,R.
     An improved chain of spheres for exchange algorithm
     J. Chem. Phys., 2021 155 104109
     doi.org/doi: 10.1063/5.0058766.
  5. Neese,F.
     The SHARK Integral Generation and Digestion System
     J. Comp. Chem., 2022  1-16
     doi.org/10.1002/jcc.26942

List of suggested additional citations. These are papers that are important in the 'surrounding' of 
of this run, or papers that preceded the highly important papers. If you like your results we are grateful for a citation.

  1. Izsak,R.; Neese,F.
     An overlap fitted chain of spheres exchange method
     J. Chem. Phys., 2011 135 144105
     doi.org/10.1063/1.3646921
  2. Izsak,R.; Hansen,A.; Neese,F.
     The resolution of identity and chain of spheres approximations for the LPNO-CCSD singles Fock term
     Molec. Phys., 2012 110 2413-2417
     doi.org/10.1080/00268976.2012.687466
  3. Neese,F.
     The ORCA program system
     WIRES Comput. Molec. Sci., 2012 2(1)73-78
     doi.org/10.1002/wcms.81
  4. Izsak,R.; Neese,F.; Klopper,W.
     Robust fitting techniques in the chain of spheres approximation to the Fock exchange: The role of the complementary space
     J. Chem. Phys., 2013 139 
     doi.org/10.1063/1.4819264
  5. Neese,F.
     Software update: the ORCA program system, version 4.0
     WIRES Comput. Molec. Sci., 2018 8(1)1-6
     doi.org/10.1002/wcms.1327
  6. Neese,F.; Wennmohs,F.; Becker,U.; Riplinger,C.
     The ORCA quantum chemistry program package
     J. Chem. Phys., 2020 152 Art. No. L224108
     doi.org/10.1063/5.0004608

List of optional additional citations

  1. Neese,F.
     Approximate second-order SCF convergence for spin unrestricted wavefunctions
     Chem. Phys. Lett., 2000 325(1-3)93-98
     doi.org/10.1016/s0009-2614(00)00662-x

Timings for individual modules:

Sum of individual times          ...    69524.116 sec (=1158.735 min)
Startup calculation              ...      518.885 sec (=   8.648 min)   0.7 %
SCF iterations                   ...    19533.599 sec (= 325.560 min)  28.1 %
Property integrals               ...    11407.479 sec (= 190.125 min)  16.4 %
SCF Response                     ...    32294.742 sec (= 538.246 min)  46.5 %
Property calculations            ...     2680.061 sec (=  44.668 min)   3.9 %
SCF Gradient evaluation          ...     3087.132 sec (=  51.452 min)   4.4 %
Geometry relaxation              ...        2.220 sec (=   0.037 min)   0.0 %
                             ****ORCA TERMINATED NORMALLY****
TOTAL RUN TIME: 0 days 19 hours 20 minutes 16 seconds 341 msec
