
                                 *****************
                                 * O   R   C   A *
                                 *****************

                                            #,                                       
                                            ###                                      
                                            ####                                     
                                            #####                                    
                                            ######                                   
                                           ########,                                 
                                     ,,################,,,,,                         
                               ,,#################################,,                 
                          ,,##########################################,,             
                       ,#########################################, ''#####,          
                    ,#############################################,,   '####,        
                  ,##################################################,,,,####,       
                ,###########''''           ''''###############################       
              ,#####''   ,,,,##########,,,,          '''####'''          '####       
            ,##' ,,,,###########################,,,                        '##       
           ' ,,###''''                  '''############,,,                           
         ,,##''                                '''############,,,,        ,,,,,,###''
      ,#''                                            '''#######################'''  
     '                                                          ''''####''''         
             ,#######,   #######,   ,#######,      ##                                
            ,#'     '#,  ##    ##  ,#'     '#,    #''#        ,####,   ,####,        
            ##       ##  ##   ,#'  ##            #'  '#       #'       #'  '#        
            ##       ##  #######   ##           ,######,      #####,   #    #        
            '#,     ,#'  ##    ##  '#,     ,#' ,#      #,     #,   #   #,  ,#        
             '#######'   ##     ##  '#######'  #'      '#     '####' # '####'        



                #########################################################
                #                        -***-                          #
                #          Department of theory and spectroscopy        #
                #                                                       #
                #                      Frank Neese                      #
                #                                                       #
                #     Directorship, Architecture, Infrastructure        #
                #                    SHARK, DRIVERS                     #
                #        Core code/Algorithms in most modules           #
                #                                                       #
                #        Max Planck Institute fuer Kohlenforschung      #
                #                Kaiser Wilhelm Platz 1                 #
                #                 D-45470 Muelheim/Ruhr                 #
                #                      Germany                          #
                #                                                       #
                #                  All rights reserved                  #
                #                        -***-                          #
                #########################################################


                         Program Version 6.0.1  -  RELEASE   -


 With contributions from (in alphabetic order):
[Max-Planck-Institut fuer Kohlenforschung]                               
  Daniel Aravena         : Magnetic Suceptibility                        
  Michael Atanasov       : Ab Initio Ligand Field Theory (pilot matlab implementation)
  Alexander A. Auer      : GIAO ZORA, VPT2 properties, NMR spectrum      
  Ute Becker             : All parallelization in ORCA, NUMFREQ, NUMCALC 
  Giovanni Bistoni       : ED, misc. LED, open-shell LED, HFLD           
  Martin Brehm           : Molecular dynamics                            
  Dmytro Bykov           : pre 5.0 version of the SCF Hessian            
  Marcos Casanova-Páez   : Triplet and SCS-CIS(D). UHF-(DLPNO)-IP/EA/STEOM-CCSD. UHF-CVS-IP/STEOM-CCSD   
  Vijay G. Chilkuri      : MRCI spin determinant printing, contributions to CSF-ICE 
  Pauline Colinet        : FMM embedding                                 
  Dipayan Datta          : RHF DLPNO-CCSD density                        
  Achintya Kumar Dutta   : EOM-CC, STEOM-CC                              
  Nicolas Foglia         : Exact transition moments, OPA infrastructure, MCD improvements    
  Dmitry Ganyushin       : Spin-Orbit,Spin-Spin,Magnetic field MRCI      
  Miquel Garcia-Rates    : C-PCM and meta-GGA Hessian, CCSD/C-PCM, Gaussian charge scheme 
  Tiago L. C. Gouveia    : GS-ROHF, GS-ROCIS                             
  Yang Guo               : DLPNO-NEVPT2, F12-NEVPT2, CIM, IAO-localization        
  Andreas Hansen         : Spin unrestricted coupled pair/coupled cluster methods 
  Ingolf Harden          : AUTO-CI MPn and infrastructure                
  Benjamin Helmich-Paris : MC-RPA, TRAH-(SCF,CASSCF), AVAS, COSX integrals, SCF dyn. polar. 
  Lee Huntington         : MR-EOM, pCC                                   
  Robert Izsak           : Overlap fitted RIJCOSX, COSX-SCS-MP3, EOM     
  Riya Kayal             : Wick's Theorem for AUTO-CI, AUTO-CI UHF-CCSDT 
  Emily Kempfer          : AUTO-CI, RHF CISDT and CCSDT                  
  Christian Kollmar      : KDIIS, OOCD, Brueckner-CCSD(T), CCSD density, CASPT2, CASPT2-K, improved NEVPT2 
  Axel Koslowski         : Symmetry handling                             
  Simone Kossmann        : meta-GGA functionals, TD-DFT gradient, OOMP2, (MP2 Hessian; deprecated post 5.0) 
  Lucas Lang             : DCDCAS                                        
  Marvin Lechner         : AUTO-CI (C++ implementation), FIC-MRCC        
  Spencer Leger          : CASSCF response                               
  Dagmar Lenk            : GEPOL surface, SMD, ORCA-2-JSON               
  Dimitrios Liakos       : Extrapolation schemes; Compound Job, initial MDCI parallelization 
  Dimitrios Manganas     : Further ROCIS development; embedding schemes. LFT, Crystal Embedding 
  Dimitrios Pantazis     : SARC Basis sets                               
  Anastasios Papadopoulos: AUTO-CI, single reference methods and gradients 
  Taras Petrenko         : pre 6.0 DFT Hessian and TD-DFT gradient, (ASA, deprecated), ECA, 1-Electron XAS/XES, NRVS 
  Peter Pinski           : DLPNO-MP2, DLPNO-MP2 Gradient                 
  Christoph Reimann      : Effective Core Potentials                     
  Marius Retegan         : Local ZFS, SOC                                
  Christoph Riplinger    : Optimizer, TS searches, QM/MM, DLPNO-CCSD(T), (RO)-DLPNO pert. Triples 
  Michael Roemelt        : Original ROCIS implementation                 
  Masaaki Saitow         : Open-shell DLPNO-CCSD energy and density      
  Barbara Sandhoefer     : DKH picture change effects                    
  Kantharuban Sivalingam : CASSCF convergence/infrastructure, NEVPT2 and variants, FIC-MRCI 
  Bernardo de Souza      : ESD, SOC TD-DFT                               
  Georgi L. Stoychev     : AutoAux, RI-MP2 NMR, DLPNO-MP2 response, X2C  
  Van Anh Tran           : RI-MP2 g-tensors                              
  Willem Van den Heuvel  : Paramagnetic NMR                              
  Zikuan Wang            : NOTCH, Electric field optimization            
  Frank Wennmohs         : Technical directorship and infrastructure     
  Hang Xu                : AUTO-CI-Response properties                   
                                                                         
[FACCTs GmbH]                                                            
  Markus Bursch, Miquel Garcia-Rates, Christoph Riplinger, Bernardo de Souza, Georgi L. Stoychev 
                                                                 
  APM, Basis sets (HGBS, AHGBS, def-TZVP (Ac-Lr), def2-XVPD (La-Lu)), CI-OPT, improved COSX, DLPNO-Multilevel,           
  DOCKER, DRACO, updates on ESD, GOAT, IRC, LR-CPCM, MBIS, meta-GGA TD-DFT gradient, ML-optimized integration grids, 
  MM, NACMEs, nearIR, NEB, NEB-TS, NL-DFT gradient (VV10), 2- and 3-layer-ONIOM, interface openCOSMO-RS, QMMM,   
  Crystal-QMMM, SF, symmetry and pop. for TD-DFT, r2SCAN hybrids, SOLVATOR                                   
                                                                         
[Other institutions]                                                     
  V. Asgeirsson          : NEB                                           
  Christoph Bannwarth    : sTDA-DFT, sTD-DFT, PBEh-3c, B97-3c, D3        
  Sebastian Ehlert       : rSCAN, r2SCAN, r2SCAN-3c, D4, dhf basis sets  
  Marvin Friede          : D4 for Fr, Ra, Ac-Lr                          
  Lars Goerigk           : TD-DFT with DH, B97 family of functionals     
  Stefan Grimme          : VdW corrections, initial TS optimization, DFT functionals, gCP, sTDA/sTD-DF 
  Waldemar Hujo          : DFT-NL                                        
  H. Jonsson             : NEB                                           
  Holger Kruse           : gCP                                           
  Marcel Mueller         : wB97X-3c, vDZP basis set                      
  Hagen Neugebauer       : wr2SCAN                                       
  Tobias Risthaus        : range-separated hybrid DFT                    
  Lukas Wittmann         : regularized MP2, r2SCAN double-hybrids, wr2SCAN        
                                                                         
We gratefully acknowledge several colleagues who have allowed us to      
interface, adapt or use parts of their codes:                            
  Ed Valeev, F. Pavosevic, A. Kumar             : LibInt (2-el integral package), F12 methods 
  Garnet Chan, S. Sharma, J. Yang, R. Olivares  : DMRG                   
  Ulf Ekstrom                                   : XCFun DFT Library      
  Mihaly Kallay                                 : mrcc  (arbitrary order and MRCC methods)
  Frank Weinhold                                : gennbo (NPA and NBO analysis)           
  Simon Mueller                                 : openCOSMO-RS                            
  Christopher J. Cramer and Donald G. Truhlar   : smd solvation model                     
  S Lehtola, MJT Oliveira, MAL Marques          : LibXC Library                           
  Liviu Ungur et al                             : ANISO software                          


 Your calculation uses the libint2 library for the computation of 2-el integrals
 For citations please refer to: http://libint.valeyev.net

 Your ORCA version has been built with support for libXC version: 6.2.2
 For citations please refer to: https://libxc.gitlab.io

 This ORCA versions uses:
   CBLAS   interface :  Fast vector & matrix operations
   LAPACKE interface :  Fast linear algebra routines
   SCALAPACK package :  Parallel linear algebra routines
   Shared memory     :  Shared parallel matrices
   BLAS/LAPACK       :  OpenBLAS 0.3.27  USE64BITINT DYNAMIC_ARCH NO_AFFINITY Cooperlake SINGLE_THREADED
        Core in use  :  Cooperlake
   Copyright (c) 2011-2014, The OpenBLAS Project


NOTE: MaxCore=6687 MB was set to SCF,MP2,MDCI,CIPSI,MRCI and CIS
      => If you want to overwrite this, your respective input block should be placed after the MaxCore statement
Warning: RI is on but no J-basis has been assigned. Assigning Def2/J (nothing to worry about!)
================================================================================

----- Orbital basis set information -----
Your calculation utilizes the basis: def2-TZVP
   F. Weigend and R. Ahlrichs, Phys. Chem. Chem. Phys. 7, 3297 (2005).

----- AuxJ basis set information -----
Your calculation utilizes the auxiliary basis: def2/J
   F. Weigend, Phys. Chem. Chem. Phys. 8, 1057 (2006).

================================================================================
                                        WARNINGS
                       Please study these warnings very carefully!
================================================================================


WARNING: your system is open-shell and RHF/RKS was chosen
  ===> : WILL SWITCH to UHF/UKS


WARNING: Geometry Optimization
  ===> : Switching off AutoStart
         For restart on a previous wavefunction, please use MOREAD

================================================================================
                                       INPUT FILE
================================================================================
NAME = SIDVIL-S6.inp
|  1> ! PBE0 def2-TZVP Opt Freq DEFGRID3 SlowConv
|  2> 
|  3> %maxcore 6687
|  4> 
|  5> %pal
|  6>     nprocs 16
|  7> end
|  8> 
|  9> *xyz 0 2
| 10> Fe 9.35224101487417 -0.01563143060984 0.29058998470948
| 11> O 9.25726908500412 1.33930393893705 1.55685687656538
| 12> O 8.39165738339328 2.78472901286094 2.97905358361671
| 13> O 8.40594902506971 -0.78011902549543 3.25471171393426
| 14> C 8.56338268883049 1.64607000454278 2.62217072979687
| 15> C 7.94989499449955 0.54337574535089 3.48082393757508
| 16> H 8.09284076192688 0.82404273355996 4.52636423252146
| 17> H 6.87357231615362 0.52792955149628 3.28791031885071
| 18> O 8.78677573713352 1.0667487061224 -1.23285721241761
| 19> O 8.77742276503717 0.15680369384365 -3.21155153516625
| 20> N 8.94424389140578 0.09086708045908 -2.0432958641961
| 21> O 7.60104273330623 -0.82146278023594 0.7025631744611
| 22> H 7.80634773607117 -1.09827265597009 1.63413327561391
| 23> H 7.51248078101192 -1.62516545788476 0.17674644816427
| 24> O 10.09313003156847 -1.34047176757604 1.31900499515219
| 25> O 11.82945384805704 -0.57066728783993 2.48421798226405
| 26> C 10.67792261637818 -0.9381106721555 2.42475196498063
| 27> C 9.75565612517954 -1.00164874560887 3.62630440898596
| 28> H 9.8221211342383 -2.00543464045186 4.0574408518126
| 29> H 10.07976524538456 -0.27932154476246 4.37869419666598
| 30> O 9.30663073373205 -0.97154963420909 -1.42814433716678
| 31> O 11.16936201997376 0.70344728772233 -0.01998607051329
| 32> H 11.72866500391635 0.1735298209098 0.58307084048285
| 33> H 11.15737232785338 1.59100806699464 0.36902550330639
| 34> *
| 35> 
| 36>                          ****END OF INPUT****
================================================================================

                       *****************************
                       * Geometry Optimization Run *
                       *****************************

Geometry optimization settings:
Update method            Update   .... BFGS
Choice of coordinates    CoordSys .... (2022) Redundant Internals
Initial Hessian          InHess   .... Almloef's Model
Max. no of cycles        MaxIter  .... 72

Convergence Tolerances:
Energy Change            TolE     ....  5.0000e-06 Eh
Max. Gradient            TolMAXG  ....  3.0000e-04 Eh/bohr
RMS Gradient             TolRMSG  ....  1.0000e-04 Eh/bohr
Max. Displacement        TolMAXD  ....  4.0000e-03 bohr
RMS Displacement         TolRMSD  ....  2.0000e-03 bohr
Strict Convergence                .... False

------------------------------------------------------------------------------
                        ORCA OPTIMIZATION COORDINATE SETUP
------------------------------------------------------------------------------

The optimization will be done in redundant internal coordinates (2022)
Making redundant internal coordinates   ...  (2022 redundants) done
Evaluating the initial hessian          ...  (Almloef) done
Evaluating the coordinates              ...  done
Calculating the B-matrix                .... done
Calculating the G-matrix                .... done
Diagonalizing the G-matrix              .... done
The first mode is                       ....  128
The number of degrees of freedom        ....   66

    -----------------------------------------------------------------
                    Redundant Internal Coordinates


    -----------------------------------------------------------------
         Definition                    Initial Value    Approx d2E/dq
    -----------------------------------------------------------------
      1. B(O   1,Fe  0)                  1.8570         1.018580   
      2. B(C   4,O   2)                  1.2056         1.101848   
      3. B(C   4,O   1)                  1.3079         0.756723   
      4. B(C   5,O   3)                  1.4180         0.504880   
      5. B(C   5,C   4)                  1.5263         0.378689   
      6. B(H   6,C   5)                  1.0920         0.357525   
      7. B(H   7,C   5)                  1.0936         0.355391   
      8. B(O   8,Fe  0)                  1.9525         0.717125   
      9. B(N  10,O   9)                  1.1819         1.076336   
     10. B(N  10,O   8)                  1.2783         0.755587   
     11. B(N  10,Fe  0)                  2.3717         0.153747   
     12. B(O  11,Fe  0)                  1.9712         0.669378   
     13. B(H  12,O  11)                  0.9933         0.460127   
     14. B(H  12,O   3)                  1.7570         0.027824   
     15. B(H  13,O  11)                  0.9645         0.511427   
     16. B(O  14,Fe  0)                  1.8335         1.110222   
     17. B(O  14,H  12)                  2.3211         0.003503   
     18. B(C  16,O  15)                  1.2102         1.083280   
     19. B(C  16,O  14)                  1.3140         0.739869   
     20. B(C  16,Fe  0)                  2.6764         0.056042   
     21. B(C  17,C  16)                  1.5160         0.393250   
     22. B(C  17,O   3)                  1.4173         0.506115   
     23. B(H  18,C  17)                  1.0945         0.354224   
     24. B(H  19,C  17)                  1.0922         0.357206   
     25. B(O  20,N  10)                  1.2800         0.750706   
     26. B(O  20,Fe  0)                  1.9672         0.679363   
     27. B(O  21,Fe  0)                  1.9788         0.651154   
     28. B(H  22,O  15)                  2.0441         0.009691   
     29. B(H  22,O  14)                  2.3471         0.003184   
     30. B(H  22,O  21)                  0.9784         0.485932   
     31. B(H  23,O  21)                  0.9691         0.502782   
     32. B(H  23,O   1)                  2.2549         0.004467   
     33. A(N  10,Fe  0,C  16)          152.2993         0.282703   
     34. A(O  11,Fe  0,O  20)           87.8998         0.561555   
     35. A(O   1,Fe  0,C  16)           74.5185         0.386168   
     36. A(O  11,Fe  0,C  16)           97.6131         0.359231   
     37. A(C  16,Fe  0,O  21)           78.2025         0.357548   
     38. A(O   1,Fe  0,O  11)           96.3344         0.606921   
     39. A(O   8,Fe  0,N  10)           32.5901         0.431903   
     40. A(C  16,Fe  0,O  20)          122.7302         0.360138   
     41. A(O   8,Fe  0,O  11)           97.6085         0.567377   
     42. A(N  10,Fe  0,O  20)           32.6544         0.427730   
     43. A(O   1,Fe  0,N  10)          129.0115         0.460248   
     44. A(O   8,Fe  0,O  21)           86.6770         0.564397   
     45. A(O  20,Fe  0,O  21)           93.4827         0.558612   
     46. A(O   1,Fe  0,O  21)           83.6177         0.603696   
     47. A(O  14,Fe  0,O  20)           98.5288         0.618892   
     48. A(O   1,Fe  0,O  20)          161.6489         0.608660   
     49. A(O  11,Fe  0,O  14)           86.9258         0.617119   
     50. A(O   1,Fe  0,O   8)           96.4744         0.615062   
     51. A(O   8,Fe  0,O  20)           65.2257         0.568983   
     52. A(N  10,Fe  0,O  11)           94.0825         0.426597   
     53. A(N  10,Fe  0,O  21)           89.2668         0.424494   
     54. A(O   1,Fe  0,O  14)           99.5212         0.669763   
     55. A(O   8,Fe  0,O  14)          162.7928         0.625420   
     56. A(N  10,Fe  0,O  14)          130.8381         0.467559   
     57. A(O  14,Fe  0,O  21)           88.8278         0.613830   
     58. A(O  14,Fe  0,C  16)           26.3025         0.392020   
     59. A(O   8,Fe  0,C  16)          163.0796         0.363479   
     60. A(Fe  0,O   1,C   4)          138.9141         0.548956   
     61. A(C   5,O   3,C  17)          114.2264         0.398446   
     62. A(O   2,C   4,C   5)          117.2951         0.437639   
     63. A(O   1,C   4,C   5)          120.1350         0.409215   
     64. A(O   1,C   4,O   2)          122.5641         0.493424   
     65. A(C   4,C   5,H   6)          107.4784         0.324661   
     66. A(O   3,C   5,H   6)          110.5165         0.338442   
     67. A(H   6,C   5,H   7)          107.5405         0.289912   
     68. A(O   3,C   5,C   4)          117.0862         0.381188   
     69. A(C   4,C   5,H   7)          107.8523         0.324342   
     70. A(O   3,C   5,H   7)          105.9756         0.338105   
     71. A(Fe  0,O   8,N  10)           92.0515         0.510128   
     72. A(Fe  0,N  10,O   8)           55.3584         0.386196   
     73. A(O   9,N  10,O  20)          124.1438         0.483847   
     74. A(O   8,N  10,O  20)          111.3361         0.453459   
     75. A(Fe  0,N  10,O  20)           56.0206         0.385760   
     76. A(O   8,N  10,O   9)          124.5201         0.484427   
     77. A(H  12,O  11,H  13)          107.3410         0.314634   
     78. A(Fe  0,O  11,H  13)          107.9554         0.418910   
     79. A(Fe  0,O  11,H  12)           97.2565         0.411111   
     80. A(Fe  0,O  14,C  16)          115.5048         0.555628   
     81. A(O  15,C  16,C  17)          123.5479         0.439279   
     82. A(O  14,C  16,C  17)          112.5434         0.410319   
     83. A(Fe  0,C  16,C  17)          110.1887         0.297659   
     84. A(O  14,C  16,O  15)          123.9040         0.489823   
     85. A(Fe  0,C  16,O  15)          113.9441         0.349287   
     86. A(Fe  0,C  16,O  14)           38.1927         0.327767   
     87. A(H  18,C  17,H  19)          108.4917         0.289722   
     88. A(C  16,C  17,H  19)          109.7391         0.326634   
     89. A(O   3,C  17,H  19)          111.0895         0.338530   
     90. A(C  16,C  17,H  18)          108.2825         0.326184   
     91. A(O   3,C  17,H  18)          107.7253         0.338057   
     92. A(O   3,C  17,C  16)          111.4058         0.383857   
     93. A(Fe  0,O  20,N  10)           91.3250         0.504394   
     94. A(Fe  0,O  21,H  23)          104.9779         0.415593   
     95. A(Fe  0,O  21,H  22)          103.3786         0.413083   
     96. A(H  22,O  21,H  23)          104.8139         0.316558   
     97. D(C   4,O   1,Fe  0,O  20)    118.2549         0.007719   
     98. D(C   4,O   1,Fe  0,O  11)     15.6901         0.007719   
     99. D(C   4,O   1,Fe  0,O  14)    -72.2414         0.007719   
    100. D(C   4,O   1,Fe  0,O  21)   -159.9701         0.007719   
    101. D(C   4,O   1,Fe  0,O   8)    114.1240         0.007719   
    102. D(C   4,O   1,Fe  0,N  10)    116.1830         0.007719   
    103. D(C   4,O   1,Fe  0,C  16)    -80.4851         0.007719   
    104. D(O   2,C   4,O   1,Fe  0)   -152.7983         0.048183   
    105. D(C   5,C   4,O   1,Fe  0)     28.1005         0.048183   
    106. D(O   3,C   5,C   4,O   1)     13.7144         0.010706   
    107. D(H   6,C   5,C   4,O   1)    138.7263         0.010706   
    108. D(O   3,C   5,C   4,O   2)   -165.4332         0.010706   
    109. D(H   6,C   5,O   3,C  17)    -55.8595         0.021879   
    110. D(H   6,C   5,C   4,O   2)    -40.4214         0.010706   
    111. D(H   7,C   5,O   3,C  17)   -172.0814         0.021879   
    112. D(C   4,C   5,O   3,C  17)     67.6155         0.021879   
    113. D(H   7,C   5,C   4,O   1)   -105.5923         0.010706   
    114. D(N  10,O   8,Fe  0,C  16)    120.3951         0.004381   
    115. D(N  10,O   8,Fe  0,O  20)     -1.5398         0.004381   
    116. D(N  10,O   8,Fe  0,O  14)     18.7207         0.004381   
    117. D(N  10,O   8,Fe  0,O  11)    -85.6642         0.004381   
    118. D(N  10,O   8,Fe  0,O  21)     93.8433         0.004381   
    119. D(N  10,O   8,Fe  0,O   1)    177.0289         0.004381   
    120. D(O  20,N  10,Fe  0,O   8)   -177.4084         0.001654   
    121. D(O   8,N  10,Fe  0,O  20)    177.4084         0.001654   
    122. D(O  20,N  10,Fe  0,O   1)    178.7913         0.001654   
    123. D(O   8,N  10,Fe  0,C  16)   -147.3134         0.001654   
    124. D(O   8,N  10,Fe  0,O  21)    -84.9741         0.001654   
    125. D(O   8,N  10,Fe  0,O  14)   -172.7904         0.001654   
    126. D(O   8,N  10,Fe  0,O  11)     97.7468         0.001654   
    127. D(O   8,N  10,Fe  0,O   1)     -3.8004         0.001654   
    128. D(O  20,N  10,O   8,Fe  0)      2.3070         0.056812   
    129. D(O   9,N  10,O   8,Fe  0)   -177.7055         0.056812   
    130. D(O  20,N  10,Fe  0,O  14)      9.8012         0.001654   
    131. D(O  20,N  10,Fe  0,O  11)    -79.6616         0.001654   
    132. D(O  20,N  10,Fe  0,C  16)     35.2782         0.001654   
    133. D(H  13,O  11,Fe  0,O  14)    -75.1982         0.004146   
    134. D(H  13,O  11,Fe  0,O   8)     88.1254         0.004146   
    135. D(H  13,O  11,Fe  0,C  16)    -99.2860         0.004146   
    136. D(H  13,O  11,Fe  0,O   1)   -174.4461         0.004146   
    137. D(H  12,O  11,Fe  0,O  20)    134.3857         0.004146   
    138. D(H  12,O  11,Fe  0,O  14)     35.7246         0.004146   
    139. D(H  12,O  11,Fe  0,N  10)    166.4701         0.004146   
    140. D(H  13,O  11,Fe  0,N  10)     55.5472         0.004146   
    141. D(H  12,O  11,Fe  0,O   8)   -160.9518         0.004146   
    142. D(H  12,O  11,Fe  0,C  16)     11.6369         0.004146   
    143. D(H  12,O  11,Fe  0,O   1)    -63.5233         0.004146   
    144. D(C  16,O  14,Fe  0,O  21)     65.1587         0.009301   
    145. D(C  16,O  14,Fe  0,O  20)    158.5049         0.009301   
    146. D(C  16,O  14,Fe  0,O  11)   -114.0837         0.009301   
    147. D(C  16,O  14,Fe  0,N  10)    153.1757         0.009301   
    148. D(C  16,O  14,Fe  0,O   8)    139.9669         0.009301   
    149. D(C  16,O  14,Fe  0,O   1)    -18.1703         0.009301   
    150. D(O  15,C  16,Fe  0,N  10)     67.7425         0.001520   
    151. D(O  15,C  16,Fe  0,O   8)    -24.1693         0.001520   
    152. D(O  15,C  16,Fe  0,O   1)    -83.6085         0.001520   
    153. D(O  14,C  16,Fe  0,O  21)   -112.0489         0.001520   
    154. D(O  14,C  16,Fe  0,O  20)    -25.5160         0.001520   
    155. D(O  14,C  16,Fe  0,O  11)     66.8887         0.001520   
    156. D(O  14,C  16,Fe  0,N  10)    -47.2590         0.001520   
    157. D(O  14,C  16,Fe  0,O   8)   -139.1709         0.001520   
    158. D(O  15,C  16,Fe  0,O  11)   -178.1098         0.001520   
    159. D(O  14,C  16,Fe  0,O   1)    161.3900         0.001520   
    160. D(C  17,C  16,O  14,Fe  0)     94.3987         0.053729   
    161. D(O  15,C  16,O  14,Fe  0)    -86.3632         0.053729   
    162. D(O  15,C  16,Fe  0,O  14)    115.0016         0.001520   
    163. D(H  18,C  17,C  16,O  14)     87.2164         0.012286   
    164. D(H  18,C  17,C  16,Fe  0)    128.2759         0.012286   
    165. D(O   3,C  17,C  16,O  15)    149.6868         0.012286   
    166. D(O   3,C  17,C  16,O  14)    -31.0719         0.012286   
    167. D(O   3,C  17,C  16,Fe  0)      9.9876         0.012286   
    168. D(H  19,C  17,O   3,C   5)     23.6597         0.021991   
    169. D(H  18,C  17,O   3,C   5)    142.3546         0.021991   
    170. D(H  18,C  17,C  16,O  15)    -92.0249         0.012286   
    171. D(C  16,C  17,O   3,C   5)    -99.0230         0.021991   
    172. D(Fe  0,O  20,N  10,O   9)    177.7236         0.055988   
    173. D(Fe  0,O  20,N  10,O   8)     -2.2889         0.055988   
    174. D(N  10,O  20,Fe  0,O  21)    -83.1817         0.004082   
    175. D(N  10,O  20,Fe  0,C  16)   -161.3886         0.004082   
    176. D(N  10,O  20,Fe  0,O  14)   -172.5172         0.004082   
    177. D(N  10,O  20,Fe  0,O  11)    100.9092         0.004082   
    178. D(N  10,O  20,Fe  0,O   8)      1.5371         0.004082   
    179. D(N  10,O  20,Fe  0,O   1)     -2.9843         0.004082   
    180. D(H  23,O  21,O  11,H  13)    168.4839         0.001500   
    181. D(H  23,O  21,O  11,H  12)    -81.3895         0.001500   
    182. D(H  22,O  21,O  11,H  13)    -82.4820         0.001500   
    183. D(H  23,O  21,Fe  0,C  16)    -93.3071         0.004003   
    184. D(H  23,O  21,Fe  0,O  14)   -117.5615         0.004003   
    185. D(H  23,O  21,Fe  0,N  10)    111.5661         0.004003   
    186. D(H  23,O  21,Fe  0,O   8)     79.0553         0.004003   
    187. D(H  23,O  21,Fe  0,O   1)    -17.8454         0.004003   
    188. D(H  22,O  21,Fe  0,O  20)   -106.4216         0.004003   
    189. D(H  22,O  21,Fe  0,C  16)     16.3071         0.004003   
    190. D(H  22,O  21,O  11,H  12)     27.6445         0.001500   
    191. D(H  22,O  21,Fe  0,O  14)     -7.9473         0.004003   
    192. D(H  22,O  21,Fe  0,N  10)   -138.8197         0.004003   
    193. D(H  22,O  21,Fe  0,O   8)   -171.3304         0.004003   
    194. D(H  22,O  21,Fe  0,O   1)     91.7689         0.004003   
    -----------------------------------------------------------------

Number of atoms                         .... 24
Number of degrees of freedom            .... 194


         *************************************************************
         *                GEOMETRY OPTIMIZATION CYCLE   1            *
         *************************************************************
---------------------------------
CARTESIAN COORDINATES (ANGSTROEM)
---------------------------------
  Fe     9.352241   -0.015631    0.290590
  O      9.257269    1.339304    1.556857
  O      8.391657    2.784729    2.979054
  O      8.405949   -0.780119    3.254712
  C      8.563383    1.646070    2.622171
  C      7.949895    0.543376    3.480824
  H      8.092841    0.824043    4.526364
  H      6.873572    0.527930    3.287910
  O      8.786776    1.066749   -1.232857
  O      8.777423    0.156804   -3.211552
  N      8.944244    0.090867   -2.043296
  O      7.601043   -0.821463    0.702563
  H      7.806348   -1.098273    1.634133
  H      7.512481   -1.625165    0.176746
  O     10.093130   -1.340472    1.319005
  O     11.829454   -0.570667    2.484218
  C     10.677923   -0.938111    2.424752
  C      9.755656   -1.001649    3.626304
  H      9.822121   -2.005435    4.057441
  H     10.079765   -0.279322    4.378694
  O      9.306631   -0.971550   -1.428144
  O     11.169362    0.703447   -0.019986
  H     11.728665    0.173530    0.583071
  H     11.157372    1.591008    0.369026

----------------------------
CARTESIAN COORDINATES (A.U.)
----------------------------
  NO LB      ZA    FRAG     MASS         X           Y           Z
   0 Fe   26.0000    0    55.850   17.673174   -0.029539    0.549135
   1 O     8.0000    0    15.999   17.493703    2.530918    2.942033
   2 O     8.0000    0    15.999   15.857934    5.262375    5.629595
   3 O     8.0000    0    15.999   15.884942   -1.474211    6.150514
   4 C     6.0000    0    12.011   16.182448    3.110622    4.955185
   5 C     6.0000    0    12.011   15.023124    1.026831    6.577804
   6 H     1.0000    0     1.008   15.293253    1.557215    8.553589
   7 H     1.0000    0     1.008   12.989169    0.997642    6.213250
   8 O     8.0000    0    15.999   16.604600    2.015863   -2.329762
   9 O     8.0000    0    15.999   16.586925    0.296316   -6.068953
  10 N     7.0000    0    14.007   16.902171    0.171714   -3.861270
  11 O     8.0000    0    15.999   14.363889   -1.552340    1.327652
  12 H     1.0000    0     1.008   14.751859   -2.075435    3.088064
  13 H     1.0000    0     1.008   14.196531   -3.071118    0.334002
  14 O     8.0000    0    15.999   19.073252   -2.533125    2.492558
  15 O     8.0000    0    15.999   22.354428   -1.078405    4.694492
  16 C     6.0000    0    12.011   20.178349   -1.772772    4.582117
  17 C     6.0000    0    12.011   18.435518   -1.892842    6.852722
  18 H     1.0000    0     1.008   18.561119   -3.789722    7.667452
  19 H     1.0000    0     1.008   19.047996   -0.527841    8.274533
  20 O     8.0000    0    15.999   17.586983   -1.835963   -2.698802
  21 O     8.0000    0    15.999   21.107035    1.329323   -0.037768
  22 H     1.0000    0     1.008   22.163965    0.327924    1.101844
  23 H     1.0000    0     1.008   21.084378    3.006570    0.697357

--------------------------------
INTERNAL COORDINATES (ANGSTROEM)
--------------------------------
 Fe     0   0   0     0.000000000000     0.00000000     0.00000000
 O      1   0   0     1.856960248504     0.00000000     0.00000000
 O      2   1   0     2.204808548569   159.76475324     0.00000000
 O      2   1   3     2.845946344432    83.03455882    68.14033972
 C      3   2   1     1.205570109576    29.99519713    60.29311434
 C      4   2   1     1.418009317648    59.75210150   209.66218950
 H      6   4   2     1.091953276955   110.51653994   230.26291088
 H      6   4   2     1.093583447715   105.97556280   114.04101069
 O      1   2   3     1.952482804830    96.47444650    76.60285472
 O      9   1   2     2.177916120133   118.58858825   175.86076673
 N     10   9   1     1.181946799962    28.91941557     2.61157505
 O      1   2   3     1.971238568637    96.33437763   338.16892133
 H     12   1   2     0.993275744608    97.25645195   296.47672896
 H     12   1   2     0.964502173718   107.95542615   185.55391039
 O      1   2   3     1.833509172929    99.52119825   250.23742613
 O     15   1   2     2.228259553567   111.01131461   313.01994008
 C     16  15   1     1.210196275577    29.30295878   105.22814216
 C      4   2   1     1.417344631343    89.30955249    90.84107681
 H     18   4   2     1.094478118762   107.72527059   198.44712771
 H     18   4   2     1.092196731129   111.08952793    79.75224456
 O     11  10   9     1.280025351430   124.14378871   179.98584788
 O      1   2   3     1.978752242301    83.61774723   162.50880724
 H     22   1   2     0.978422192809   103.37861646    91.76887379
 H     22   1   2     0.969142865725   104.97791720   342.15463423

---------------------------
INTERNAL COORDINATES (A.U.)
---------------------------
 Fe     0   0   0     0.000000000000     0.00000000     0.00000000
 O      1   0   0     3.509146311250     0.00000000     0.00000000
 O      2   1   0     4.166484334523   159.76475324     0.00000000
 O      2   1   3     5.378059182811    83.03455882    68.14033972
 C      3   2   1     2.278197342339    29.99519713    60.29311434
 C      4   2   1     2.679649265703    59.75210150   209.66218950
 H      6   4   2     2.063492644482   110.51653994   230.26291088
 H      6   4   2     2.066573220770   105.97556280   114.04101069
 O      1   2   3     3.689657782319    96.47444650    76.60285472
 O      9   1   2     4.115665009704   118.58858825   175.86076673
 N     10   9   1     2.233555756794    28.91941557     2.61157505
 O      1   2   3     3.725101039346    96.33437763   338.16892133
 H     12   1   2     1.877019132775    97.25645195   296.47672896
 H     12   1   2     1.822644963900   107.95542615   185.55391039
 O      1   2   3     3.464830200868    99.52119825   250.23742613
 O     15   1   2     4.210800311535   111.01131461   313.01994008
 C     16  15   1     2.286939529132    29.30295878   105.22814216
 C      4   2   1     2.678393190621    89.30955249    90.84107681
 H     18   4   2     2.068263904029   107.72527059   198.44712771
 H     18   4   2     2.063952706197   111.08952793    79.75224456
 O     11  10   9     2.418897358679   124.14378871   179.98584788
 O      1   2   3     3.739299824831    83.61774723   162.50880724
 H     22   1   2     1.848949987759   103.37861646    91.76887379
 H     22   1   2     1.831414600863   104.97791720   342.15463423

---------------------
BASIS SET INFORMATION
---------------------
There are 5 groups of distinct atoms

 Group   1 Type Fe  : 17s11p7d1f contracted to 6s4p4d1f pattern {842111/6311/4111/1}
 Group   2 Type O   : 11s6p2d1f contracted to 5s3p2d1f pattern {62111/411/11/1}
 Group   3 Type C   : 11s6p2d1f contracted to 5s3p2d1f pattern {62111/411/11/1}
 Group   4 Type H   : 5s1p contracted to 3s1p pattern {311/1}
 Group   5 Type N   : 11s6p2d1f contracted to 5s3p2d1f pattern {62111/411/11/1}

Atom   0Fe   basis set group =>   1
Atom   1O    basis set group =>   2
Atom   2O    basis set group =>   2
Atom   3O    basis set group =>   2
Atom   4C    basis set group =>   3
Atom   5C    basis set group =>   3
Atom   6H    basis set group =>   4
Atom   7H    basis set group =>   4
Atom   8O    basis set group =>   2
Atom   9O    basis set group =>   2
Atom  10N    basis set group =>   5
Atom  11O    basis set group =>   2
Atom  12H    basis set group =>   4
Atom  13H    basis set group =>   4
Atom  14O    basis set group =>   2
Atom  15O    basis set group =>   2
Atom  16C    basis set group =>   3
Atom  17C    basis set group =>   3
Atom  18H    basis set group =>   4
Atom  19H    basis set group =>   4
Atom  20O    basis set group =>   2
Atom  21O    basis set group =>   2
Atom  22H    basis set group =>   4
Atom  23H    basis set group =>   4
---------------------------------
AUXILIARY/J BASIS SET INFORMATION
---------------------------------
There are 5 groups of distinct atoms

 Group   1 Type Fe  : 19s5p5d3f3g contracted to 8s5p5d2f3g pattern {121111111/11111/11111/21/111}
 Group   2 Type O   : 12s5p4d2f1g contracted to 6s4p3d1f1g pattern {711111/2111/211/2/1}
 Group   3 Type C   : 12s5p4d2f1g contracted to 6s4p3d1f1g pattern {711111/2111/211/2/1}
 Group   4 Type H   : 5s2p1d contracted to 3s1p1d pattern {311/2/1}
 Group   5 Type N   : 12s5p4d2f1g contracted to 6s4p3d1f1g pattern {711111/2111/211/2/1}

Atom   0Fe   basis set group =>   1
Atom   1O    basis set group =>   2
Atom   2O    basis set group =>   2
Atom   3O    basis set group =>   2
Atom   4C    basis set group =>   3
Atom   5C    basis set group =>   3
Atom   6H    basis set group =>   4
Atom   7H    basis set group =>   4
Atom   8O    basis set group =>   2
Atom   9O    basis set group =>   2
Atom  10N    basis set group =>   5
Atom  11O    basis set group =>   2
Atom  12H    basis set group =>   4
Atom  13H    basis set group =>   4
Atom  14O    basis set group =>   2
Atom  15O    basis set group =>   2
Atom  16C    basis set group =>   3
Atom  17C    basis set group =>   3
Atom  18H    basis set group =>   4
Atom  19H    basis set group =>   4
Atom  20O    basis set group =>   2
Atom  21O    basis set group =>   2
Atom  22H    basis set group =>   4
Atom  23H    basis set group =>   4


           ************************************************************
           *        Program running with 16 parallel MPI-processes    *
           *              working on a common directory               *
           ************************************************************
------------------------------------------------------------------------------
                             ORCA STARTUP CALCULATIONS
                           -- RI-GTO INTEGRALS CHOSEN --
------------------------------------------------------------------------------
------------------------------------------------------------------------------
                   ___                                                        
                  /   \      - P O W E R E D   B Y -                         
                 /     \                                                     
                 |  |  |   _    _      __       _____    __    __             
                 |  |  |  | |  | |    /  \     |  _  \  |  |  /  |          
                  \  \/   | |  | |   /    \    | | | |  |  | /  /          
                 / \  \   | |__| |  /  /\  \   | |_| |  |  |/  /          
                |  |  |   |  __  | /  /__\  \  |    /   |      \           
                |  |  |   | |  | | |   __   |  |    \   |  |\   \          
                \     /   | |  | | |  |  |  |  | |\  \  |  | \   \       
                 \___/    |_|  |_| |__|  |__|  |_| \__\ |__|  \__/        
                                                                              
                      - O R C A' S   B I G   F R I E N D -                    
                                      &                                       
                       - I N T E G R A L  F E E D E R -                       
                                                                              
 v1 FN, 2020, v2 2021, v3 2022-2024                                           
------------------------------------------------------------------------------


----------------------
SHARK INTEGRAL PACKAGE
----------------------

Number of atoms                             ...     24
Number of basis functions                   ...    558
Number of shells                            ...    212
Maximum angular momentum                    ...      3
Integral batch strategy                     ... SHARK/LIBINT Hybrid
RI-J (if used) integral strategy            ... SPLIT-RIJ (Revised 2003 algorithm where possible)
Printlevel                                  ...      1
Contraction scheme used                     ... SEGMENTED contraction
Prescreening option                         ... SCHWARTZ
   Thresh                                   ... 2.500e-11
   Tcut                                     ... 2.500e-12
   Tpresel                                  ... 2.500e-12 
Coulomb Range Separation                    ... NOT USED
Exchange Range Separation                   ... NOT USED
Multipole approximations                    ... NOT USED
Finite Nucleus Model                        ... NOT USED
CABS basis                                  ... NOT available
Auxiliary Coulomb fitting basis             ... AVAILABLE
   # of basis functions in Aux-J            ...    912
   # of shells in Aux-J                     ...    288
   Maximum angular momentum in Aux-J        ...      4
Auxiliary J/K fitting basis                 ... NOT available
Auxiliary Correlation fitting basis         ... NOT available
Auxiliary 'external' fitting basis          ... NOT available

Checking pre-screening integrals            ... done (  0.0 sec) Dimension = 212
Check shell pair data                       ... done (  0.0 sec)
Shell pair information
Shell pair cut-off parameter TPreSel        ...   2.5e-12
Total number of shell pairs                 ...     22578
Shell pairs after pre-screening             ...     17751
Total number of primitive shell pairs       ...     74333
Primitive shell pairs kept                  ...     38888
          la=0 lb=0:   4183 shell pairs
          la=1 lb=0:   4898 shell pairs
          la=1 lb=1:   1461 shell pairs
          la=2 lb=0:   2678 shell pairs
          la=2 lb=1:   1628 shell pairs
          la=2 lb=2:    468 shell pairs
          la=3 lb=0:   1192 shell pairs
          la=3 lb=1:    747 shell pairs
          la=3 lb=2:    399 shell pairs
          la=3 lb=3:     97 shell pairs

Calculating one electron integrals          ... done (  0.0 sec)
done (  0.1 sec)
Calculating Nuclear repulsion               ... done (  0.0 sec) ENN=   1797.092176483064 Eh

Diagonalization of the overlap matrix:
Smallest eigenvalue                        ... 1.721e-04
Time for diagonalization                   ...    0.031 sec
Threshold for overlap eigenvalues          ... 1.000e-07
Number of eigenvalues below threshold      ... 0
Time for construction of square roots      ...    0.022 sec
Total time needed                          ...    0.066 sec

-------------------
DFT GRID GENERATION
-------------------

General Integration Accuracy     IntAcc      ... 4.959
Radial Grid Type                 RadialGrid  ... OptM3 with GC (2021)
Angular Grid (max. ang.)         AngularGrid ... 6 (Lebedev-590)
Angular grid pruning method      GridPruning ... 4 (adaptive)
Weight generation scheme         WeightScheme... mBecke (2022)
Basis function cutoff            BFCut       ... 1.0000e-11
Integration weight cutoff        WCut        ... 1.0000e-14
Partially contracted basis set               ... off
Rotationally invariant grid construction     ... off
Angular grids for H and He will be reduced by one unit
Core-polarized basis detected: some atoms will have their core
                               angular grid increased.

Total number of grid points                  ...   310439
Total number of batches                      ...     4863
Average number of points per batch           ...       63
Average number of grid points per atom       ...    12935

--------------------
COSX GRID GENERATION
--------------------

GRIDX 1
-------
General Integration Accuracy     IntAcc      ... 4.020
Radial Grid Type                 RadialGrid  ... OptM3 with GC (2021)
Angular Grid (max. ang.)         AngularGrid ... 2 (Lebedev-110)
Angular grid pruning method      GridPruning ... 4 (adaptive)
Weight generation scheme         WeightScheme... mBecke (2022)
Basis function cutoff            BFCut       ... 1.0000e-11
Integration weight cutoff        WCut        ... 1.0000e-14
Partially contracted basis set               ... on
Rotationally invariant grid construction     ... off
Angular grids for H and He will be reduced by one unit
Core-polarized basis detected: some atoms will have their core
                               angular grid increased.

Total number of grid points                  ...    38357
Total number of batches                      ...      311
Average number of points per batch           ...      123
Average number of grid points per atom       ...     1598
UseSFitting                                  ... on

GRIDX 2
-------
General Integration Accuracy     IntAcc      ... 4.338
Radial Grid Type                 RadialGrid  ... OptM3 with GC (2021)
Angular Grid (max. ang.)         AngularGrid ... 3 (Lebedev-194)
Angular grid pruning method      GridPruning ... 4 (adaptive)
Weight generation scheme         WeightScheme... mBecke (2022)
Basis function cutoff            BFCut       ... 1.0000e-11
Integration weight cutoff        WCut        ... 1.0000e-14
Partially contracted basis set               ... on
Rotationally invariant grid construction     ... off
Angular grids for H and He will be reduced by one unit
Core-polarized basis detected: some atoms will have their core
                               angular grid increased.

Total number of grid points                  ...    77728
Total number of batches                      ...      620
Average number of points per batch           ...      125
Average number of grid points per atom       ...     3239
UseSFitting                                  ... on

GRIDX 3
-------
General Integration Accuracy     IntAcc      ... 4.871
Radial Grid Type                 RadialGrid  ... OptM3 with GC (2021)
Angular Grid (max. ang.)         AngularGrid ... 4 (Lebedev-302)
Angular grid pruning method      GridPruning ... 4 (adaptive)
Weight generation scheme         WeightScheme... mBecke (2022)
Basis function cutoff            BFCut       ... 1.0000e-11
Integration weight cutoff        WCut        ... 1.0000e-14
Partially contracted basis set               ... on
Rotationally invariant grid construction     ... off
Angular grids for H and He will be reduced by one unit
Core-polarized basis detected: some atoms will have their core
                               angular grid increased.

Total number of grid points                  ...   143798
Total number of batches                      ...     1134
Average number of points per batch           ...      126
Average number of grid points per atom       ...     5992
UseSFitting                                  ... on
Initializing property integral containers    ... done (  0.0 sec)

SHARK setup successfully completed in   4.2 seconds

Maximum memory used throughout the entire STARTUP-calculation: 85.5 MB


           ************************************************************
           *        Program running with 16 parallel MPI-processes    *
           *              working on a common directory               *
           ************************************************************
-------------------------------------------------------------------------------
                                 ORCA GUESS
                   Start orbitals & Density for SCF / CASSCF
-------------------------------------------------------------------------------

------------
SCF SETTINGS
------------
Hamiltonian:
 Density Functional     Method          .... DFT(GTOs)
 Exchange Functional    Exchange        .... PBE
   PBE kappa parameter   XKappa         ....  0.804000
   PBE mue parameter    XMuePBE         ....  0.219520
 Correlation Functional Correlation     .... PBE
   PBE beta parameter  CBetaPBE         ....  0.066725
 LDA part of GGA corr.  LDAOpt          .... PW91-LDA
 Gradients option       PostSCFGGA      .... off
 Hybrid DFT is turned on
   Fraction HF Exchange ScalHFX         ....  0.250000
   Scaling of DF-GGA-X  ScalDFX         ....  0.750000
   Scaling of DF-GGA-C  ScalDFC         ....  1.000000
   Scaling of DF-LDA-C  ScalLDAC        ....  1.000000
   Perturbative correction              ....  0.000000
   NL short-range parameter             ....  6.900000
 RI-approximation to the Coulomb term is turned on
   Number of AuxJ basis functions       .... 912
   RIJ-COSX (HFX calculated with COS-X)).... on


General Settings:
 Integral files         IntName         .... SIDVIL-S6
 Hartree-Fock type      HFTyp           .... UHF
 Total Charge           Charge          ....    0
 Multiplicity           Mult            ....    2
 Number of Electrons    NEL             ....  145
 Basis Dimension        Dim             ....  558
 Nuclear Repulsion      ENuc            ....   1797.0921764831 Eh

Convergence Acceleration:
 AO-DIIS                CNVDIIS         .... on
   Start iteration      DIISMaxIt       ....     0
   Startup error        DIISStart       ....  0.200000
   # of expansion vecs  DIISMaxEq       ....     5
   Bias factor          DIISBfac        ....   1.050
   Max. coefficient     DIISMaxC        ....  10.000
 MO-DIIS                CNVKDIIS        .... off
 Trust-Rad. Augm. Hess. CNVTRAH         .... auto
   Auto Start mean grad. ratio tolernc. ....  1.125000
   Auto Start start iteration           ....    50
   Auto Start num. interpolation iter.  ....    10
   Max. Number of Micro iterations      ....    24
   Max. Number of Macro iterations      .... Maxiter - #DIIS iter
   Number of Davidson start vectors     ....     2
   Converg. threshold    (grad. norm)   ....   1.000e-05
   Grad. Scal. Fac. for Micro threshold ....   0.100
   Minimum threshold for Micro iter.    ....   1.000e-02
   NR start threshold (gradient norm)   ....   1.000e-04
   Initial trust radius                 ....   0.400
   Minimum AH scaling param. (alpha)    ....   1.000
   Maximum AH scaling param. (alpha)    .... 1000.000
   Quad. conv. algorithm                .... NR
   White noise on init. David. guess    .... on
   Maximum white noise                  ....   0.010
   Pseudo random numbers                .... off
   Inactive MOs                         .... canonical
   Orbital update algorithm             .... Taylor
   Preconditioner                       .... Diag
   Full preconditioner red. dimension   ....   250
 SOSCF                  CNVSOSCF        .... on
   Start iteration      SOSCFMaxIt      ....   150
   Startup grad/error   SOSCFStart      ....  0.001000
   Hessian update       SOSCFHessUp     .... L-BFGS
 Level Shifting         CNVShift        .... on
   Level shift para.    LevelShift      ....    0.2500
   Turn off err/grad.   ShiftErr        ....    0.0000
 Zerner damping         CNVZerner       .... off
 Static damping         CNVDamp         .... on
   Fraction old density DampFac         ....    0.8500
   Max. Damping (<1)    DampMax         ....    0.9800
   Min. Damping (>=0)   DampMin         ....    0.0000
   Turn off err/grad.   DampErr         ....    0.0300

SCF Procedure:
 Maximum # iterations   MaxIter         ....   125
 SCF integral mode      SCFMode         .... Direct
   Integral package                     .... SHARK and LIBINT hybrid scheme
 Reset frequency        DirectResetFreq ....    20
 Integral Threshold     Thresh          ....  2.500e-11 Eh
 Primitive CutOff       TCut            ....  2.500e-12 Eh

Convergence Tolerance:
 Convergence Check Mode ConvCheckMode   .... Total+1el-Energy
 Convergence forced     ConvForced      .... 0
 Energy Change          TolE            ....  1.000e-08 Eh
 1-El. energy change                    ....  1.000e-05 Eh
 Orbital Gradient       TolG            ....  1.000e-05
 Orbital Rotation angle TolX            ....  1.000e-05
 DIIS Error             TolErr          ....  5.000e-07

------------------------------
INITIAL GUESS: MODEL POTENTIAL
------------------------------
Loading Hartree-Fock densities                     ... done
Calculating cut-offs                               ... done
Initializing the effective Hamiltonian             ... done
Setting up the integral package (SHARK)            ... done
done (   0.1 sec)
Making the grid                                    ... done (   0.2 sec)
Mapping shells                                     ... done
Starting the XC term evaluation                    ... done (   0.1 sec)
  promolecular density results
     # of electrons  =    144.998764623
     EX              =   -165.209336923
     EC              =     -5.270253374
     EX+EC           =   -170.479590296
Transforming the Hamiltonian                       ... done (   0.0 sec)
done (   0.0 sec)
Back transforming the eigenvectors                 ... done (   0.0 sec)
done
                      ------------------
                      INITIAL GUESS DONE (   0.5 sec)
                      ------------------
             **** ENERGY FILE WAS UPDATED (SIDVIL-S6.en.tmp) ****
Finished Guess after   0.8 sec
Maximum memory used throughout the entire GUESS-calculation: 37.7 MB


           ************************************************************
           *        Program running with 16 parallel MPI-processes    *
           *              working on a common directory               *
           ************************************************************

-------------------------------------------------------------------------------------------
                                      ORCA LEAN-SCF
                              memory conserving SCF solver
-------------------------------------------------------------------------------------------

----------------------------------------D-I-I-S--------------------------------------------
Iteration    Energy (Eh)           Delta-E    RMSDP     MaxDP     DIISErr   Damp  Time(sec)
-------------------------------------------------------------------------------------------
               ***  Starting incremental Fock matrix formation  ***
    1    -2226.3987819059025242     0.00e+00  3.51e-04  2.84e-02  1.45e-01  0.850   5.5
Warning: op=0 Small HOMO/LUMO gap (   0.054) - skipping pre-diagonalization
         Will do a full diagonalization
    2    -2226.6241348421654038    -2.25e-01  3.25e-04  2.74e-02  9.76e-02  0.850   3.5
                               ***Turning on AO-DIIS***
    3    -2226.7230152591655497    -9.89e-02  1.81e-04  1.33e-02  5.76e-02  0.850   3.2
    4    -2226.7883802890464722    -6.54e-02  1.01e-04  8.03e-03  4.32e-02  0.850   3.2
    5    -2226.8364254289090240    -4.80e-02  6.47e-05  3.87e-03  3.68e-02  0.850   3.1
    6    -2226.8753320129244457    -3.89e-02  5.36e-05  3.06e-03  3.24e-02  0.850   3.1
    7    -2226.9086917497716058    -3.34e-02  5.60e-05  4.05e-03  2.80e-02  0.850   3.0
    8    -2226.9369592594612186    -2.83e-02  2.75e-04  1.68e-02  2.24e-02  0.000   3.0
    9    -2227.0864441096664450    -1.49e-01  5.34e-05  3.75e-03  5.79e-03  0.000   3.3
   10    -2227.0871382770351374    -6.94e-04  2.68e-05  2.96e-03  3.50e-03  0.000   3.0
   11    -2227.0874842272023670    -3.46e-04  2.04e-05  2.68e-03  2.65e-03  0.000   2.8
   12    -2227.0876414269841916    -1.57e-04  1.50e-05  2.00e-03  2.42e-03  0.000   2.8
   13    -2227.0877598467759526    -1.18e-04  1.65e-05  2.28e-03  2.17e-03  0.000   2.7
   14    -2227.0878712604835528    -1.11e-04  1.08e-05  1.53e-03  2.00e-03  0.000   2.6
   15    -2227.0879409771455357    -6.97e-05  1.91e-05  2.89e-03  1.82e-03  0.000   2.6
   16    -2227.0880546387907089    -1.14e-04  1.58e-05  2.37e-03  1.50e-03  0.000   2.7
   17    -2227.0881395567107575    -8.49e-05  1.49e-05  2.20e-03  1.32e-03  0.000   2.6
   18    -2227.0882127825534553    -7.32e-05  1.65e-05  2.43e-03  1.17e-03  0.000   2.6
   19    -2227.0882864678424085    -7.37e-05  1.93e-05  2.84e-03  1.01e-03  0.000   2.6
                              *** Initializing SOSCF ***
---------------------------------------S-O-S-C-F--------------------------------------
Iteration    Energy (Eh)           Delta-E    RMSDP     MaxDP     MaxGrad    Time(sec)
--------------------------------------------------------------------------------------
   20    -2227.0883640728434330    -7.76e-05  1.36e-05  1.92e-03  9.43e-04     3.1
               *** Restarting incremental Fock matrix formation ***
   21    -2227.0884139045519987    -4.98e-05  1.36e-05  1.69e-03  9.00e-04     5.7
   22    -2227.0884541877881020    -4.03e-05  1.34e-04  1.74e-02  6.89e-04     3.9
   23    -2227.0884770524730811    -2.29e-05  2.59e-05  1.81e-03  3.58e-03     4.6
   24    -2227.0886376143812413    -1.61e-04  1.77e-05  1.15e-03  9.17e-04     4.3
   25    -2227.0886490036114083    -1.14e-05  1.26e-05  1.73e-03  4.90e-04     4.3
   26    -2227.0886758018973524    -2.68e-05  2.20e-05  3.07e-03  2.77e-04     3.9
   27    -2227.0886858247549753    -1.00e-05  2.50e-05  3.56e-03  3.27e-04     4.1
   28    -2227.0887022130600599    -1.64e-05  3.36e-05  4.68e-03  2.54e-04     3.9
   29    -2227.0887256418491233    -2.34e-05  4.25e-05  5.25e-03  4.92e-04     4.1
   30    -2227.0887420512663084    -1.64e-05  1.04e-05  1.36e-03  5.00e-04     4.3
   31    -2227.0887509767499068    -8.93e-06  7.86e-06  8.45e-04  2.85e-04     4.0
   32    -2227.0887557007190480    -4.72e-06  4.08e-06  7.77e-04  1.80e-04     3.9
   33    -2227.0887580467356202    -2.35e-06  1.16e-05  2.29e-03  1.35e-04     3.6
   34    -2227.0887603367787051    -2.29e-06  7.45e-06  1.60e-03  1.80e-04     3.9
   35    -2227.0887625267200747    -2.19e-06  7.05e-06  1.47e-03  1.19e-04     3.7
   36    -2227.0887642665215935    -1.74e-06  7.03e-06  1.33e-03  1.24e-04     3.7
   37    -2227.0887659116242503    -1.65e-06  6.07e-06  1.18e-03  1.01e-04     3.6
   38    -2227.0887668007239881    -8.89e-07  3.24e-06  5.11e-04  9.40e-05     3.8
   39    -2227.0887670547413109    -2.54e-07  1.33e-06  1.58e-04  8.02e-05     3.5
   40    -2227.0887673359379733    -2.81e-07  8.84e-07  9.23e-05  2.87e-05     3.4
               *** Restarting incremental Fock matrix formation ***
   41    -2227.0887674521909503    -1.16e-07  8.12e-07  8.50e-05  2.73e-05     5.7
   42    -2227.0887675060889705    -5.39e-08  1.41e-06  1.39e-04  1.58e-05     3.0
   43    -2227.0887675734111326    -6.73e-08  1.56e-06  1.96e-04  1.69e-05     3.1
   44    -2227.0887676267730058    -5.34e-08  1.95e-06  2.97e-04  2.46e-05     3.1
   45    -2227.0887677158689257    -8.91e-08  1.48e-06  2.11e-04  1.31e-05     3.1
   46    -2227.0887677599002927    -4.40e-08  4.55e-07  6.25e-05  1.29e-05     3.2
   47    -2227.0887677475752753     1.23e-08  2.85e-07  2.64e-05  1.03e-05     2.9
   48    -2227.0887677474320299     1.43e-10  3.66e-07  3.88e-05  7.80e-06     2.8
                 **** Energy Check signals convergence ****

               *****************************************************
               *                     SUCCESS                       *
               *           SCF CONVERGED AFTER  48 CYCLES          *
               *****************************************************

 done (    7.077 sec)
Old exchange energy                            :    -41.664674412 Eh
New exchange energy                            :    -41.664687545 Eh
Exchange energy change after final integration :     -0.000013133 Eh
Total energy after final integration           :  -2227.088780880 Eh
             **** ENERGY FILE WAS UPDATED (SIDVIL-S6.en.tmp) ****

----------------
TOTAL SCF ENERGY
----------------

Total Energy       :      -2227.08878087999119 Eh          -60602.16668 eV

Components:
Nuclear Repulsion  :       1797.09217648306367 Eh           48901.36422 eV
Electronic Energy  :      -4024.18094423049570 Eh         -109503.53054 eV
One Electron Energy:      -6647.73086714379315 Eh         -180893.95337 eV
Two Electron Energy:       2623.54992291329745 Eh           71390.42282 eV

Virial components:
Potential Energy   :      -4448.94856436974351 Eh         -121062.04511 eV
Kinetic Energy     :       2221.85978348975232 Eh           60459.87843 eV
Virial Ratio       :          2.00235343266443

DFT components:
N(Alpha)           :       72.999999101633 electrons
N(Beta)            :       71.999999206433 electrons
N(Total)           :      144.999998308066 electrons
E(X)               :     -125.077440877872 Eh       
E(C)               :       -5.278998699037 Eh       
E(XC)              :     -130.356439576910 Eh       

---------------
SCF CONVERGENCE
---------------

  Last Energy change         ...   -1.4325e-10  Tolerance :   1.0000e-08
  Last MAX-Density change    ...    3.8765e-05  Tolerance :   1.0000e-07
  Last RMS-Density change    ...    3.6632e-07  Tolerance :   5.0000e-09
  Last DIIS Error            ...    9.4286e-04  Tolerance :   5.0000e-07
  Last Orbital Gradient      ...    7.7970e-06  Tolerance :   1.0000e-05
  Last Orbital Rotation      ...    1.1891e-04  Tolerance :   1.0000e-05


----------------------
UHF SPIN CONTAMINATION
----------------------

Warning: in a DFT calculation there is little theoretical justification to 
         calculate <S**2> as in Hartree-Fock theory. We will do it anyways
         but you should keep in mind that the values have only limited relevance

Expectation value of <S**2>     :     0.861336
Ideal value S*(S+1) for S=0.5   :     0.750000
Deviation                       :     0.111336

----------------
ORBITAL ENERGIES
----------------
                 SPIN UP ORBITALS
  NO   OCC          E(Eh)            E(eV) 
   0   1.0000    -256.462278     -6978.6934 
   1   1.0000     -30.250316      -823.1529 
   2   1.0000     -26.081246      -709.7068 
   3   1.0000     -26.077099      -709.5939 
   4   1.0000     -26.064825      -709.2600 
   5   1.0000     -19.298354      -525.1349 
   6   1.0000     -19.294537      -525.0311 
   7   1.0000     -19.293946      -525.0150 
   8   1.0000     -19.290931      -524.9329 
   9   1.0000     -19.285468      -524.7843 
  10   1.0000     -19.271149      -524.3946 
  11   1.0000     -19.232680      -523.3478 
  12   1.0000     -19.229361      -523.2575 
  13   1.0000     -19.216655      -522.9118 
  14   1.0000     -19.184418      -522.0345 
  15   1.0000     -14.700321      -400.0161 
  16   1.0000     -10.368497      -282.1411 
  17   1.0000     -10.348710      -281.6027 
  18   1.0000     -10.311002      -280.5766 
  19   1.0000     -10.304427      -280.3977 
  20   1.0000      -3.614507       -98.3557 
  21   1.0000      -2.384116       -64.8751 
  22   1.0000      -2.377290       -64.6893 
  23   1.0000      -2.350840       -63.9696 
  24   1.0000      -1.354734       -36.8642 
  25   1.0000      -1.159994       -31.5650 
  26   1.0000      -1.146796       -31.2059 
  27   1.0000      -1.128366       -30.7044 
  28   1.0000      -1.121107       -30.5069 
  29   1.0000      -1.118776       -30.4434 
  30   1.0000      -1.106088       -30.0982 
  31   1.0000      -1.105093       -30.0711 
  32   1.0000      -1.042918       -28.3792 
  33   1.0000      -1.023748       -27.8576 
  34   1.0000      -0.812094       -22.0982 
  35   1.0000      -0.737403       -20.0657 
  36   1.0000      -0.697417       -18.9777 
  37   1.0000      -0.646692       -17.5974 
  38   1.0000      -0.630469       -17.1559 
  39   1.0000      -0.628277       -17.0963 
  40   1.0000      -0.623891       -16.9769 
  41   1.0000      -0.606009       -16.4904 
  42   1.0000      -0.600057       -16.3284 
  43   1.0000      -0.594401       -16.1745 
  44   1.0000      -0.566804       -15.4235 
  45   1.0000      -0.558067       -15.1858 
  46   1.0000      -0.548454       -14.9242 
  47   1.0000      -0.530122       -14.4254 
  48   1.0000      -0.509795       -13.8722 
  49   1.0000      -0.502910       -13.6849 
  50   1.0000      -0.496807       -13.5188 
  51   1.0000      -0.486203       -13.2302 
  52   1.0000      -0.477819       -13.0021 
  53   1.0000      -0.467850       -12.7309 
  54   1.0000      -0.461927       -12.5697 
  55   1.0000      -0.455623       -12.3981 
  56   1.0000      -0.430233       -11.7072 
  57   1.0000      -0.422749       -11.5036 
  58   1.0000      -0.411036       -11.1849 
  59   1.0000      -0.402519       -10.9531 
  60   1.0000      -0.398489       -10.8434 
  61   1.0000      -0.394856       -10.7446 
  62   1.0000      -0.388036       -10.5590 
  63   1.0000      -0.376140       -10.2353 
  64   1.0000      -0.369378       -10.0513 
  65   1.0000      -0.362753        -9.8710 
  66   1.0000      -0.357056        -9.7160 
  67   1.0000      -0.345459        -9.4004 
  68   1.0000      -0.328032        -8.9262 
  69   1.0000      -0.324233        -8.8228 
  70   1.0000      -0.317465        -8.6387 
  71   1.0000      -0.303133        -8.2487 
  72   1.0000      -0.280782        -7.6405 
  73   0.0000      -0.112966        -3.0740 
  74   0.0000      -0.109872        -2.9898 
  75   0.0000      -0.078402        -2.1334 
  76   0.0000      -0.009802        -0.2667 
  77   0.0000      -0.000138        -0.0038 
  78   0.0000       0.009299         0.2530 
  79   0.0000       0.033530         0.9124 
  80   0.0000       0.044563         1.2126 
  81   0.0000       0.068638         1.8677 
  82   0.0000       0.079641         2.1671 
  83   0.0000       0.087658         2.3853 

                 SPIN DOWN ORBITALS
  NO   OCC          E(Eh)            E(eV) 
   0   1.0000    -256.461945     -6978.6843 
   1   1.0000     -30.228800      -822.5675 
   2   1.0000     -26.059262      -709.1086 
   3   1.0000     -26.056527      -709.0341 
   4   1.0000     -26.053176      -708.9430 
   5   1.0000     -19.298673      -525.1436 
   6   1.0000     -19.294634      -525.0337 
   7   1.0000     -19.293842      -525.0121 
   8   1.0000     -19.291532      -524.9493 
   9   1.0000     -19.285690      -524.7903 
  10   1.0000     -19.271167      -524.3951 
  11   1.0000     -19.231528      -523.3165 
  12   1.0000     -19.229038      -523.2487 
  13   1.0000     -19.216818      -522.9162 
  14   1.0000     -19.184219      -522.0291 
  15   1.0000     -14.700287      -400.0151 
  16   1.0000     -10.368472      -282.1405 
  17   1.0000     -10.348812      -281.6055 
  18   1.0000     -10.310905      -280.5740 
  19   1.0000     -10.304414      -280.3974 
  20   1.0000      -3.562219       -96.9329 
  21   1.0000      -2.317072       -63.0507 
  22   1.0000      -2.313982       -62.9667 
  23   1.0000      -2.312786       -62.9341 
  24   1.0000      -1.354792       -36.8658 
  25   1.0000      -1.160148       -31.5692 
  26   1.0000      -1.146383       -31.1947 
  27   1.0000      -1.128628       -30.7115 
  28   1.0000      -1.121729       -30.5238 
  29   1.0000      -1.118905       -30.4470 
  30   1.0000      -1.106022       -30.0964 
  31   1.0000      -1.104963       -30.0676 
  32   1.0000      -1.041483       -28.3402 
  33   1.0000      -1.023076       -27.8393 
  34   1.0000      -0.811812       -22.0905 
  35   1.0000      -0.737148       -20.0588 
  36   1.0000      -0.697355       -18.9760 
  37   1.0000      -0.646242       -17.5851 
  38   1.0000      -0.630397       -17.1540 
  39   1.0000      -0.628156       -17.0930 
  40   1.0000      -0.622880       -16.9494 
  41   1.0000      -0.605470       -16.4757 
  42   1.0000      -0.599626       -16.3167 
  43   1.0000      -0.593763       -16.1571 
  44   1.0000      -0.566177       -15.4065 
  45   1.0000      -0.557816       -15.1789 
  46   1.0000      -0.548939       -14.9374 
  47   1.0000      -0.530780       -14.4433 
  48   1.0000      -0.509828       -13.8731 
  49   1.0000      -0.501084       -13.6352 
  50   1.0000      -0.497125       -13.5275 
  51   1.0000      -0.483466       -13.1558 
  52   1.0000      -0.472476       -12.8567 
  53   1.0000      -0.464719       -12.6456 
  54   1.0000      -0.453877       -12.3506 
  55   1.0000      -0.445876       -12.1329 
  56   1.0000      -0.429900       -11.6982 
  57   1.0000      -0.417733       -11.3671 
  58   1.0000      -0.404252       -11.0003 
  59   1.0000      -0.398007       -10.8303 
  60   1.0000      -0.392591       -10.6830 
  61   1.0000      -0.387902       -10.5554 
  62   1.0000      -0.376086       -10.2338 
  63   1.0000      -0.369344       -10.0504 
  64   1.0000      -0.361078        -9.8254 
  65   1.0000      -0.349991        -9.5237 
  66   1.0000      -0.339725        -9.2444 
  67   1.0000      -0.336181        -9.1480 
  68   1.0000      -0.321696        -8.7538 
  69   1.0000      -0.312599        -8.5063 
  70   1.0000      -0.299681        -8.1547 
  71   1.0000      -0.279405        -7.6030 
  72   0.0000      -0.120276        -3.2729 
  73   0.0000      -0.090568        -2.4645 
  74   0.0000      -0.083804        -2.2804 
  75   0.0000      -0.077968        -2.1216 
  76   0.0000      -0.008392        -0.2283 
  77   0.0000       0.000746         0.0203 
  78   0.0000       0.011079         0.3015 
  79   0.0000       0.033470         0.9108 
  80   0.0000       0.044595         1.2135 
  81   0.0000       0.068804         1.8722 
  82   0.0000       0.079768         2.1706 
*Only the first 10 virtual orbitals were printed.

                    ********************************
                    * MULLIKEN POPULATION ANALYSIS *
                    ********************************

--------------------------------------------
MULLIKEN ATOMIC CHARGES AND SPIN POPULATIONS
--------------------------------------------
   0 Fe:    0.415539    1.006999
   1 O :   -0.372849    0.000183
   2 O :   -0.314363    0.007632
   3 O :   -0.332900   -0.000561
   4 C :    0.268322   -0.002661
   5 C :   -0.118461    0.000473
   6 H :    0.152810   -0.000121
   7 H :    0.144643    0.000196
   8 O :   -0.255125    0.000170
   9 O :   -0.250452   -0.006616
  10 N :    0.590536    0.001264
  11 O :   -0.470472   -0.011257
  12 H :    0.374784    0.000615
  13 H :    0.364462   -0.000741
  14 O :   -0.400577    0.028475
  15 O :   -0.357388   -0.006247
  16 C :    0.308845    0.000589
  17 C :   -0.028341    0.004571
  18 H :    0.141093    0.000230
  19 H :    0.132190    0.000601
  20 O :   -0.293333   -0.004191
  21 O :   -0.443800   -0.020200
  22 H :    0.367850    0.001549
  23 H :    0.376987   -0.000951
Sum of atomic charges         :   -0.0000000
Sum of atomic spin populations:    1.0000000

-----------------------------------------------------
MULLIKEN REDUCED ORBITAL CHARGES AND SPIN POPULATIONS
-----------------------------------------------------
CHARGE
  0 Fes       :     6.555821  s :     6.555821
      pz      :     4.231128  p :    12.610581
      px      :     4.195676
      py      :     4.183778
      dz2     :     1.256773  d :     6.415125
      dxz     :     1.831134
      dyz     :     0.801581
      dx2y2   :     1.554042
      dxy     :     0.971595
      f0      :     0.000273  f :     0.002934
      f+1     :     0.000282
      f-1     :     0.000778
      f+2     :     0.000458
      f-2     :     0.000448
      f+3     :     0.000261
      f-3     :     0.000435

  1 O s       :     3.773396  s :     3.773396
      pz      :     1.386076  p :     4.571434
      px      :     1.597870
      py      :     1.587488
      dz2     :     0.006957  d :     0.026165
      dxz     :     0.007367
      dyz     :     0.004500
      dx2y2   :     0.004564
      dxy     :     0.002777
      f0      :     0.000338  f :     0.001853
      f+1     :     0.000391
      f-1     :     0.000356
      f+2     :     0.000316
      f-2     :     0.000328
      f+3     :     0.000071
      f-3     :     0.000053

  2 O s       :     3.798051  s :     3.798051
      pz      :     1.627758  p :     4.482278
      px      :     1.476924
      py      :     1.377596
      dz2     :     0.003963  d :     0.032088
      dxz     :     0.001065
      dyz     :     0.009296
      dx2y2   :     0.007664
      dxy     :     0.010100
      f0      :     0.000188  f :     0.001947
      f+1     :     0.000032
      f-1     :     0.000421
      f+2     :     0.000336
      f-2     :     0.000169
      f+3     :     0.000479
      f-3     :     0.000321

  3 O s       :     3.771846  s :     3.771846
      pz      :     1.751906  p :     4.520213
      px      :     1.362918
      py      :     1.405389
      dz2     :     0.005210  d :     0.038928
      dxz     :     0.005813
      dyz     :     0.005054
      dx2y2   :     0.015366
      dxy     :     0.007485
      f0      :     0.000223  f :     0.001913
      f+1     :     0.000270
      f-1     :     0.000218
      f+2     :     0.000311
      f-2     :     0.000124
      f+3     :     0.000391
      f-3     :     0.000377

  4 C s       :     3.072149  s :     3.072149
      pz      :     0.748681  p :     2.347241
      px      :     0.768584
      py      :     0.829976
      dz2     :     0.061059  d :     0.286476
      dxz     :     0.029293
      dyz     :     0.084525
      dx2y2   :     0.043773
      dxy     :     0.067827
      f0      :     0.004160  f :     0.025813
      f+1     :     0.002111
      f-1     :     0.005166
      f+2     :     0.004404
      f-2     :     0.003257
      f+3     :     0.003735
      f-3     :     0.002980

  5 C s       :     3.167898  s :     3.167898
      pz      :     1.066907  p :     2.819496
      px      :     1.058521
      py      :     0.694068
      dz2     :     0.019632  d :     0.121460
      dxz     :     0.008005
      dyz     :     0.036696
      dx2y2   :     0.034849
      dxy     :     0.022279
      f0      :     0.001360  f :     0.009607
      f+1     :     0.000509
      f-1     :     0.001525
      f+2     :     0.001218
      f-2     :     0.001080
      f+3     :     0.001893
      f-3     :     0.002023

  6 H s       :     0.825879  s :     0.825879
      pz      :     0.013111  p :     0.021311
      px      :     0.004283
      py      :     0.003918

  7 H s       :     0.833987  s :     0.833987
      pz      :     0.004660  p :     0.021370
      px      :     0.013867
      py      :     0.002843

  8 O s       :     3.861108  s :     3.861108
      pz      :     1.361752  p :     4.348324
      px      :     1.617829
      py      :     1.368743
      dz2     :     0.004562  d :     0.042796
      dxz     :     0.004401
      dyz     :     0.017711
      dx2y2   :     0.008380
      dxy     :     0.007742
      f0      :     0.000294  f :     0.002897
      f+1     :     0.000099
      f-1     :     0.000655
      f+2     :     0.000799
      f-2     :     0.000463
      f+3     :     0.000288
      f-3     :     0.000300

  9 O s       :     3.877028  s :     3.877028
      pz      :     1.147787  p :     4.322032
      px      :     1.415998
      py      :     1.758247
      dz2     :     0.021380  d :     0.047539
      dxz     :     0.014984
      dyz     :     0.010248
      dx2y2   :     0.000546
      dxy     :     0.000380
      f0      :     0.001599  f :     0.003854
      f+1     :     0.001159
      f-1     :     0.000926
      f+2     :     0.000090
      f-2     :     0.000064
      f+3     :     0.000008
      f-3     :     0.000007

 10 N s       :     3.204669  s :     3.204669
      pz      :     0.842675  p :     2.873831
      px      :     1.107187
      py      :     0.923968
      dz2     :     0.069356  d :     0.312946
      dxz     :     0.071194
      dyz     :     0.099075
      dx2y2   :     0.030449
      dxy     :     0.042871
      f0      :     0.002280  f :     0.018019
      f+1     :     0.002617
      f-1     :     0.006212
      f+2     :     0.001790
      f-2     :     0.002348
      f+3     :     0.001370
      f-3     :     0.001403

 11 O s       :     3.725503  s :     3.725503
      pz      :     1.403066  p :     4.721401
      px      :     1.772601
      py      :     1.545735
      dz2     :     0.003985  d :     0.022409
      dxz     :     0.002229
      dyz     :     0.007629
      dx2y2   :     0.006705
      dxy     :     0.001860
      f0      :     0.000287  f :     0.001158
      f+1     :     0.000153
      f-1     :     0.000138
      f+2     :     0.000281
      f-2     :     0.000044
      f+3     :     0.000071
      f-3     :     0.000185

 12 H s       :     0.571496  s :     0.571496
      pz      :     0.029754  p :     0.053720
      px      :     0.013738
      py      :     0.010228

 13 H s       :     0.589327  s :     0.589327
      pz      :     0.013811  p :     0.046210
      px      :     0.014050
      py      :     0.018350

 14 O s       :     3.818844  s :     3.818844
      pz      :     1.368105  p :     4.551998
      px      :     1.663288
      py      :     1.520606
      dz2     :     0.006988  d :     0.028083
      dxz     :     0.005723
      dyz     :     0.007135
      dx2y2   :     0.004619
      dxy     :     0.003618
      f0      :     0.000285  f :     0.001651
      f+1     :     0.000461
      f-1     :     0.000219
      f+2     :     0.000230
      f-2     :     0.000305
      f+3     :     0.000063
      f-3     :     0.000089

 15 O s       :     3.826014  s :     3.826014
      pz      :     1.763450  p :     4.498342
      px      :     1.334176
      py      :     1.400716
      dz2     :     0.003332  d :     0.031205
      dxz     :     0.007819
      dyz     :     0.000931
      dx2y2   :     0.008949
      dxy     :     0.010174
      f0      :     0.000237  f :     0.001827
      f+1     :     0.000260
      f-1     :     0.000085
      f+2     :     0.000222
      f-2     :     0.000132
      f+3     :     0.000481
      f-3     :     0.000411

 16 C s       :     3.060112  s :     3.060112
      pz      :     0.806360  p :     2.328080
      px      :     0.797559
      py      :     0.724162
      dz2     :     0.046142  d :     0.277604
      dxz     :     0.100612
      dyz     :     0.040197
      dx2y2   :     0.041666
      dxy     :     0.048986
      f0      :     0.006157  f :     0.025359
      f+1     :     0.003053
      f-1     :     0.002233
      f+2     :     0.004574
      f-2     :     0.003210
      f+3     :     0.003369
      f-3     :     0.002763

 17 C s       :     3.149853  s :     3.149853
      pz      :     0.983061  p :     2.750579
      px      :     0.695175
      py      :     1.072343
      dz2     :     0.017158  d :     0.117891
      dxz     :     0.035112
      dyz     :     0.014523
      dx2y2   :     0.027090
      dxy     :     0.024008
      f0      :     0.001341  f :     0.010017
[...]
     65       0.000031   0.000248  -0.006524   0.046179   0.009460  -0.000073
     66      -0.000389  -0.002839   0.076185  -0.537070   0.032630   0.000067
     67       0.000198   0.002332  -0.058855   0.423223  -0.004323  -0.000056
     68      -0.000445  -0.003374   0.098344  -0.709077   0.055979  -0.000525
     69       0.000124   0.000081  -0.002114   0.015701   0.085709  -0.000916
     70      -0.000068  -0.000537   0.013073  -0.080323  -0.969187   0.009885
     71      -0.000029   0.000190  -0.000733   0.003556  -0.212461   0.001983


-----------
IR SPECTRUM
-----------

 Mode   freq       eps      Int      T**2         TX        TY        TZ
       cm**-1   L/(mol*cm) km/mol    a.u.
----------------------------------------------------------------------------
  6:     45.63   0.000749    3.78  0.005121  ( 0.053524  0.024805  0.040504)
  7:     67.82   0.000152    0.77  0.000698  ( 0.005232 -0.015423  0.020810)
  8:     85.21   0.000965    4.88  0.003534  ( 0.051255 -0.025785  0.015551)
  9:     95.78   0.000177    0.90  0.000578  ( 0.004953 -0.023256 -0.003517)
 10:    114.02   0.000664    3.35  0.001817  (-0.000414 -0.019265  0.038019)
 11:    141.58   0.000287    1.45  0.000632  ( 0.024503 -0.004727  0.003083)
 12:    172.58   0.001107    5.59  0.002002  (-0.027242 -0.013551  0.032805)
 13:    182.09   0.000796    4.02  0.001364  (-0.029211  0.016225 -0.015716)
 14:    202.72   0.002184   11.04  0.003362  ( 0.050608  0.001586 -0.028262)
 15:    210.24   0.001137    5.75  0.001688  ( 0.038416  0.012659 -0.007234)
 16:    235.78   0.000700    3.54  0.000926  ( 0.005866  0.019811  0.022345)
 17:    238.50   0.002686   13.57  0.003514  (-0.041061 -0.015065 -0.040013)
 18:    256.60   0.004194   21.19  0.005100  ( 0.007746  0.019027 -0.068399)
 19:    273.79   0.001312    6.63  0.001495  (-0.024481 -0.017433  0.024327)
 20:    312.90   0.001701    8.59  0.001696  ( 0.017946 -0.037041  0.001419)
 21:    343.24   0.000829    4.19  0.000753  (-0.000034 -0.024317 -0.012726)
 22:    367.10   0.001756    8.87  0.001493  (-0.005602 -0.021971 -0.031282)
 23:    372.85   0.002510   12.69  0.002101  (-0.003882  0.039554 -0.022834)
 24:    383.20   0.006513   32.92  0.005304  (-0.011138  0.058057 -0.042538)
 25:    395.80   0.001869    9.45  0.001474  ( 0.013412  0.035875 -0.002638)
 26:    424.85   0.009610   48.56  0.007059  (-0.027151  0.005546  0.079313)
 27:    435.96   0.003210   16.22  0.002298  (-0.014033 -0.009429 -0.044855)
 28:    456.32   0.031532  159.35  0.021564  ( 0.079022  0.035973  0.118428)
 29:    475.25   0.004691   23.71  0.003080  (-0.052329 -0.015153  0.010600)
 30:    540.20   0.006420   32.45  0.003709  (-0.044178  0.023284 -0.034859)
 31:    555.40   0.006959   35.17  0.003910  ( 0.041286 -0.006695  0.046482)
 32:    578.98   0.000533    2.69  0.000287  ( 0.003967  0.015807 -0.004670)
 33:    634.15   0.017529   88.58  0.008626  (-0.002930  0.047087 -0.080002)
 34:    703.24   0.019312   97.59  0.008570  (-0.048851 -0.029492  0.072894)
 35:    720.03   0.002208   11.16  0.000957  (-0.011464 -0.013132  0.025552)
 36:    724.23   0.000974    4.92  0.000420  ( 0.002828  0.016337  0.012030)
 37:    737.32   0.006217   31.42  0.002631  (-0.041283 -0.008109  0.029343)
 38:    781.79   0.045704  230.97  0.018243  ( 0.126264  0.011587 -0.046548)
 39:    798.35   0.015896   80.33  0.006214  (-0.016947  0.004659  0.076842)
 40:    833.38   0.001493    7.54  0.000559  ( 0.021942  0.008803  0.000027)
 41:    921.78   0.024293  122.77  0.008224  ( 0.088175  0.018922  0.009557)
 42:    939.43   0.013900   70.24  0.004617  ( 0.015268  0.053840  0.038543)
 43:    953.40   0.012033   60.81  0.003938  (-0.061481  0.012212  0.003068)
 44:    979.25   0.000187    0.94  0.000060  ( 0.007503  0.000138  0.001787)
 45:   1007.59   0.013899   70.24  0.004305  (-0.014247 -0.025185  0.058886)
 46:   1015.44   0.017452   88.20  0.005363  ( 0.040565  0.006552 -0.060621)
 47:   1069.63   0.002735   13.82  0.000798  (-0.025050  0.000623 -0.013044)
 48:   1078.23   0.009009   45.53  0.002607  (-0.006130  0.003282 -0.050588)
 49:   1132.79   0.007333   37.06  0.002020  ( 0.027048 -0.033632  0.012547)
 50:   1265.83   0.005612   28.36  0.001383  ( 0.027464 -0.018434  0.017009)
 51:   1304.00   0.051697  261.26  0.012372  (-0.039003  0.104159  0.001234)
 52:   1314.51   0.008924   45.10  0.002119  (-0.023196  0.009885  0.038507)
 53:   1319.34   0.016219   81.96  0.003836  (-0.057365  0.023321  0.001265)
 54:   1358.92   0.100559  508.19  0.023093  (-0.035934  0.030555  0.144457)
 55:   1365.99   0.009629   48.66  0.002200  ( 0.038330 -0.026424  0.005678)
 56:   1376.96   0.055791  281.94  0.012644  (-0.002628 -0.018947 -0.110806)
 57:   1454.53   0.000426    2.15  0.000091  ( 0.008282  0.004102  0.002428)
 58:   1470.87   0.001359    6.87  0.000288  (-0.004958 -0.008356  0.013928)
 59:   1643.94   0.014218   71.85  0.002699  ( 0.010257  0.049837  0.010486)
 60:   1659.09   0.010521   53.17  0.001979  ( 0.014939  0.021446  0.035997)
 61:   1734.25   0.179531  907.27  0.032305  (-0.044154 -0.015161 -0.173567)
 62:   1755.19   0.052228  263.94  0.009286  ( 0.095376  0.011401 -0.007696)
 63:   1790.07   0.077788  393.11  0.013561  (-0.022595  0.106253  0.041958)
 64:   3067.78   0.003045   15.39  0.000310  ( 0.012413 -0.009420  0.008183)
 65:   3070.58   0.003246   16.40  0.000330  (-0.003413  0.006631  0.016561)
 66:   3124.79   0.000378    1.91  0.000038  ( 0.003816 -0.001968  0.004397)
 67:   3128.66   0.001158    5.85  0.000116  ( 0.001710  0.005589  0.009020)
 68:   3333.82   0.075827  383.20  0.007098  (-0.015632  0.000330 -0.082785)
 69:   3378.67   0.084460  426.82  0.007801  (-0.028825  0.036871 -0.074904)
 70:   3791.89   0.019504   98.57  0.001605  (-0.003391 -0.039910  0.000904)
 71:   3837.76   0.024507  123.85  0.001993  (-0.016573 -0.031010 -0.027504)

* The epsilon (eps) is given for a Dirac delta lineshape.
** The dipole moment derivative (T) already includes vibrational overlap.

The first frequency considered to be a vibration is 6
The total number of vibrations considered is 66


--------------------------
THERMOCHEMISTRY AT 298.15K
--------------------------

Temperature         ...   298.15 K
Pressure            ...     1.00 atm
Total Mass          ...   285.95 AMU
Quasi RRHO          ...     True
Cut-Off Frequency   ...     1.00 cm^-1

Throughout the following assumptions are being made:
  (1) The electronic state is orbitally nondegenerate
      but the spin degeneracy is treated
  (2) There are no thermally accessible electronically excited states
  (3) Hindered rotations indicated by low frequency modes are not
      treated as such but are treated as vibrations and this may
      cause some error
  (4) All equations used are the standard statistical mechanics
      equations for an ideal gas
  (5) All vibrations are strictly harmonic

freq.      45.63  E(vib)   ...       0.53 
freq.      67.82  E(vib)   ...       0.50 
freq.      85.21  E(vib)   ...       0.48 
freq.      95.78  E(vib)   ...       0.47 
freq.     114.02  E(vib)   ...       0.44 
freq.     141.58  E(vib)   ...       0.41 
freq.     172.58  E(vib)   ...       0.38 
freq.     182.09  E(vib)   ...       0.37 
freq.     202.72  E(vib)   ...       0.35 
freq.     210.24  E(vib)   ...       0.34 
freq.     235.78  E(vib)   ...       0.32 
freq.     238.50  E(vib)   ...       0.32 
freq.     256.60  E(vib)   ...       0.30 
freq.     273.79  E(vib)   ...       0.28 
freq.     312.90  E(vib)   ...       0.25 
freq.     343.24  E(vib)   ...       0.23 
freq.     367.10  E(vib)   ...       0.22 
freq.     372.85  E(vib)   ...       0.21 
freq.     383.20  E(vib)   ...       0.20 
freq.     395.80  E(vib)   ...       0.20 
freq.     424.85  E(vib)   ...       0.18 
freq.     435.96  E(vib)   ...       0.17 
freq.     456.32  E(vib)   ...       0.16 
freq.     475.25  E(vib)   ...       0.15 
freq.     540.20  E(vib)   ...       0.12 
freq.     555.40  E(vib)   ...       0.12 
freq.     578.98  E(vib)   ...       0.11 
freq.     634.15  E(vib)   ...       0.09 
freq.     703.24  E(vib)   ...       0.07 
freq.     720.03  E(vib)   ...       0.07 
freq.     724.23  E(vib)   ...       0.06 
freq.     737.32  E(vib)   ...       0.06 
freq.     781.79  E(vib)   ...       0.05 
freq.     798.35  E(vib)   ...       0.05 
freq.     833.38  E(vib)   ...       0.04 
freq.     921.78  E(vib)   ...       0.03 
freq.     939.43  E(vib)   ...       0.03 
freq.     953.40  E(vib)   ...       0.03 
freq.     979.25  E(vib)   ...       0.03 
freq.    1007.59  E(vib)   ...       0.02 
freq.    1015.44  E(vib)   ...       0.02 
freq.    1069.63  E(vib)   ...       0.02 
freq.    1078.23  E(vib)   ...       0.02 
freq.    1132.79  E(vib)   ...       0.01 
freq.    1265.83  E(vib)   ...       0.01 
freq.    1304.00  E(vib)   ...       0.01 
freq.    1314.51  E(vib)   ...       0.01 
freq.    1319.34  E(vib)   ...       0.01 
freq.    1358.92  E(vib)   ...       0.01 
freq.    1365.99  E(vib)   ...       0.01 
freq.    1376.96  E(vib)   ...       0.01 
freq.    1454.53  E(vib)   ...       0.00 
freq.    1470.87  E(vib)   ...       0.00 
freq.    1643.94  E(vib)   ...       0.00 
freq.    1659.09  E(vib)   ...       0.00 
freq.    1734.25  E(vib)   ...       0.00 
freq.    1755.19  E(vib)   ...       0.00 
freq.    1790.07  E(vib)   ...       0.00 
freq.    3067.78  E(vib)   ...       0.00 
freq.    3070.58  E(vib)   ...       0.00 
freq.    3124.79  E(vib)   ...       0.00 
freq.    3128.66  E(vib)   ...       0.00 
freq.    3333.82  E(vib)   ...       0.00 
freq.    3378.67  E(vib)   ...       0.00 
freq.    3791.89  E(vib)   ...       0.00 
freq.    3837.76  E(vib)   ...       0.00 

------------
INNER ENERGY
------------

The inner energy is: U= E(el) + E(ZPE) + E(vib) + E(rot) + E(trans)
    E(el)   - is the total energy from the electronic structure calculation
              = E(kin-el) + E(nuc-el) + E(el-el) + E(nuc-nuc)
    E(ZPE)  - the the zero temperature vibrational energy from the frequency calculation
    E(vib)  - the the finite temperature correction to E(ZPE) due to population
              of excited vibrational states
    E(rot)  - is the rotational thermal energy
    E(trans)- is the translational thermal energy

Summary of contributions to the inner energy U:
Electronic energy                ...  -2227.08974966 Eh
Zero point energy                ...      0.16070617 Eh     100.84 kcal/mol
Thermal vibrational correction   ...      0.01367331 Eh       8.58 kcal/mol
Thermal rotational correction    ...      0.00141627 Eh       0.89 kcal/mol
Thermal translational correction ...      0.00141627 Eh       0.89 kcal/mol
-----------------------------------------------------------------------
Total thermal energy                  -2226.91253763 Eh


Summary of corrections to the electronic energy:
(perhaps to be used in another calculation)
Total thermal correction                  0.01650585 Eh      10.36 kcal/mol
Non-thermal (ZPE) correction              0.16070617 Eh     100.84 kcal/mol
-----------------------------------------------------------------------
Total correction                          0.17721203 Eh     111.20 kcal/mol


--------
ENTHALPY
--------

The enthalpy is H = U + kB*T
                kB is Boltzmann's constant
Total thermal energy              ...  -2226.91253763 Eh 
Thermal Enthalpy correction       ...      0.00094421 Eh       0.59 kcal/mol
-----------------------------------------------------------------------
Total Enthalpy                    ...  -2226.91159342 Eh


Note: Only C1 symmetry has been detected, increase convergence thresholds 
      if your molecule has a higher symmetry. Symmetry factor of 1.0 is   
      used for the rotational entropy correction. 
 

Note: Rotational entropy computed according to Herzberg 
Infrared and Raman Spectra, Chapter V,1, Van Nostrand Reinhold, 1945 
Point Group:  C1, Symmetry Number:   1  
Rotational constants in cm-1:     0.026590     0.012676     0.011449 

Vibrational entropy computed according to the QRRHO of S. Grimme
Chem.Eur.J. 2012 18 9955 using a reference frequency of 100.0 cm-1


-------
ENTROPY
-------

The entropy contributions are T*S = T*(S(el)+S(vib)+S(rot)+S(trans))
     S(el)   - electronic entropy
     S(vib)  - vibrational entropy
     S(rot)  - rotational entropy
     S(trans)- translational entropy
The entropies will be listed as multiplied by the temperature to get
units of energy

Electronic entropy                ...      0.00065446 Eh      0.41 kcal/mol
Vibrational entropy               ...      0.02367563 Eh     14.86 kcal/mol
Rotational entropy                ...      0.01539547 Eh      9.66 kcal/mol
Translational entropy             ...      0.02035927 Eh     12.78 kcal/mol
-----------------------------------------------------------------------
Final entropy term                ...      0.06008482 Eh     37.70 kcal/mol

In case the symmetry of your molecule has not been determined correctly
or in case you have a reason to use a different symmetry number we print 
out the resulting rotational entropy values for sn=1,12:

 non-linear molecules -----------------------------------
|  sn= 1 | S(rot)=       0.01539547 Eh      9.66 kcal/mol|
|  sn= 2 | S(rot)=       0.01474101 Eh      9.25 kcal/mol|
|  sn= 3 | S(rot)=       0.01435818 Eh      9.01 kcal/mol|
|  sn= 4 | S(rot)=       0.01408656 Eh      8.84 kcal/mol|
|  sn= 5 | S(rot)=       0.01387587 Eh      8.71 kcal/mol|
|  sn= 6 | S(rot)=       0.01370372 Eh      8.60 kcal/mol|
|  sn= 7 | S(rot)=       0.01355818 Eh      8.51 kcal/mol|
|  sn= 8 | S(rot)=       0.01343210 Eh      8.43 kcal/mol|
|  sn= 9 | S(rot)=       0.01332089 Eh      8.36 kcal/mol|
|  sn=10 | S(rot)=       0.01322141 Eh      8.30 kcal/mol|
|  sn=11 | S(rot)=       0.01313142 Eh      8.24 kcal/mol|
|  sn=12 | S(rot)=       0.01304927 Eh      8.19 kcal/mol|
 linear molecules ---------------------------------------
|  Dinfh | S(rot)=       0.00954617 Eh      5.99 kcal/mol|
|  Cinfv | S(rot)=       0.01020063 Eh      6.40 kcal/mol|
 --------------------------------------------------------


-------------------
GIBBS FREE ENERGY
-------------------

The Gibbs free energy is G = H - T*S

Total enthalpy                    ...  -2226.91159342 Eh 
Total entropy correction          ...     -0.06008482 Eh    -37.70 kcal/mol
-----------------------------------------------------------------------
Final Gibbs free energy         ...  -2226.97167824 Eh

For completeness - the Gibbs free energy minus the electronic energy
G-E(el)                           ...      0.11807142 Eh     74.09 kcal/mol


Maximum memory used throughout the entire PROP-calculation: 400.0 MB

--------------------------------
SUGGESTED CITATIONS FOR THIS RUN
--------------------------------

Below you find a list of papers that are relevant to this ORCA run
We neither can nor want to force you to cite these papers, but we appreciate if you do
You receive ORCA, which is the product of decades of hard work by many enthusiastic individuals, for free
The only thing we kindly ask in return is that you cite our papers,
We deeply appreciate it, if you show your appreciation for ORCA by not just citing the generic ORCA reference.

Please note that relegating all ORCA citations to the supporting information does *not* help us.
SI sections are not indexed - citations you put there will not count into any citation statistics
But we need these citations in order to attract the funding resources that allow us to do what we are doing

Therefore, if you are a happy ORCA user, please consider citing a few of the papers listed below in the main body of your paper

In addition to the list printed below, the program has created the file SIDVIL-S6.bibtex that contains the list in bibtex format
You can import this file easily into all common literature databanks and citation aid programs


List of essential papers. We consider these as the minimum necessary citations

  1. Neese,F.
     Software update: the ORCA program system, version 5.0
     WIRES Comput. Molec. Sci., 2022 12(1)e1606
     doi.org/10.1002/wcms.1606

List of papers to cite with high priority. The work reported in these papers was absolutely
necessary for this run to complete.
Our perspective: the developers of density functionals and basis sets usually get cited in chemistry papers
Good! But without the algorithms to do something with them, the functionals or basis sets would not do anything.
Hence, in our opinion, the algorithm design and method developments papers are equally worthy of getting cited

  1. Neese,F.
     An improvement of the resolution of the identity approximation for the formation of the Coulomb matrix
     J. Comp. Chem., 2003 24(14)1740-1747
     doi.org/10.1002/jcc.10318
  2. Neese,F.; Wennmohs,F.; Hansen,A.; Becker,U.
     Efficient, approximate and parallel Hartree-Fock and hybrid DFT calculations. A 'chain-of-spheres' algorithm for the Hartree-Fock exchange
     Chem. Phys., 2009 356(1-3)98-109
     doi.org/10.1016/j.chemphys.2008.10.036
  3. Bykov,D.; Petrenko,T.; Izsak,R.; Kossmann,S.; Becker,U.; Valeev,E.; Neese,F.
     Efficient implementation of the analytic second derivatives of Hartree-Fock and hybrid DFT energies: a detailed analysis of different approximations
     Molec. Phys., 2015 113 1961-1977
     doi.org/10.1080/00268976.2015.1025114
  4. Helmich-Paris,B.; de Souza,B.; Neese,F.; Izsák,R.
     An improved chain of spheres for exchange algorithm
     J. Chem. Phys., 2021 155 104109
     doi.org/doi: 10.1063/5.0058766.
  5. Neese,F.
     The SHARK Integral Generation and Digestion System
     J. Comp. Chem., 2022  1-16
     doi.org/10.1002/jcc.26942

List of suggested additional citations. These are papers that are important in the 'surrounding' of 
of this run, or papers that preceded the highly important papers. If you like your results we are grateful for a citation.

  1. Izsak,R.; Neese,F.
     An overlap fitted chain of spheres exchange method
     J. Chem. Phys., 2011 135 144105
     doi.org/10.1063/1.3646921
  2. Izsak,R.; Hansen,A.; Neese,F.
     The resolution of identity and chain of spheres approximations for the LPNO-CCSD singles Fock term
     Molec. Phys., 2012 110 2413-2417
     doi.org/10.1080/00268976.2012.687466
  3. Neese,F.
     The ORCA program system
     WIRES Comput. Molec. Sci., 2012 2(1)73-78
     doi.org/10.1002/wcms.81
  4. Izsak,R.; Neese,F.; Klopper,W.
     Robust fitting techniques in the chain of spheres approximation to the Fock exchange: The role of the complementary space
     J. Chem. Phys., 2013 139 
     doi.org/10.1063/1.4819264
  5. Neese,F.
     Software update: the ORCA program system, version 4.0
     WIRES Comput. Molec. Sci., 2018 8(1)1-6
     doi.org/10.1002/wcms.1327
  6. Neese,F.; Wennmohs,F.; Becker,U.; Riplinger,C.
     The ORCA quantum chemistry program package
     J. Chem. Phys., 2020 152 Art. No. L224108
     doi.org/10.1063/5.0004608

List of optional additional citations

  1. Neese,F.
     Approximate second-order SCF convergence for spin unrestricted wavefunctions
     Chem. Phys. Lett., 2000 325(1-3)93-98
     doi.org/10.1016/s0009-2614(00)00662-x

Timings for individual modules:

Sum of individual times          ...     2480.495 sec (=  41.342 min)
Startup calculation              ...       77.186 sec (=   1.286 min)   3.1 %
SCF iterations                   ...      881.351 sec (=  14.689 min)  35.5 %
Property integrals               ...      276.426 sec (=   4.607 min)  11.1 %
SCF Response                     ...      801.262 sec (=  13.354 min)  32.3 %
Property calculations            ...      209.784 sec (=   3.496 min)   8.5 %
SCF Gradient evaluation          ...      234.181 sec (=   3.903 min)   9.4 %
Geometry relaxation              ...        0.305 sec (=   0.005 min)   0.0 %
                             ****ORCA TERMINATED NORMALLY****
TOTAL RUN TIME: 0 days 0 hours 41 minutes 42 seconds 177 msec
