
                                 *****************
                                 * O   R   C   A *
                                 *****************

                                            #,                                       
                                            ###                                      
                                            ####                                     
                                            #####                                    
                                            ######                                   
                                           ########,                                 
                                     ,,################,,,,,                         
                               ,,#################################,,                 
                          ,,##########################################,,             
                       ,#########################################, ''#####,          
                    ,#############################################,,   '####,        
                  ,##################################################,,,,####,       
                ,###########''''           ''''###############################       
              ,#####''   ,,,,##########,,,,          '''####'''          '####       
            ,##' ,,,,###########################,,,                        '##       
           ' ,,###''''                  '''############,,,                           
         ,,##''                                '''############,,,,        ,,,,,,###''
      ,#''                                            '''#######################'''  
     '                                                          ''''####''''         
             ,#######,   #######,   ,#######,      ##                                
            ,#'     '#,  ##    ##  ,#'     '#,    #''#        ,####,   ,####,        
            ##       ##  ##   ,#'  ##            #'  '#       #'       #'  '#        
            ##       ##  #######   ##           ,######,      #####,   #    #        
            '#,     ,#'  ##    ##  '#,     ,#' ,#      #,     #,   #   #,  ,#        
             '#######'   ##     ##  '#######'  #'      '#     '####' # '####'        



                #########################################################
                #                        -***-                          #
                #          Department of theory and spectroscopy        #
                #                                                       #
                #                      Frank Neese                      #
                #                                                       #
                #     Directorship, Architecture, Infrastructure        #
                #                    SHARK, DRIVERS                     #
                #        Core code/Algorithms in most modules           #
                #                                                       #
                #        Max Planck Institute fuer Kohlenforschung      #
                #                Kaiser Wilhelm Platz 1                 #
                #                 D-45470 Muelheim/Ruhr                 #
                #                      Germany                          #
                #                                                       #
                #                  All rights reserved                  #
                #                        -***-                          #
                #########################################################


                         Program Version 6.0.1  -  RELEASE   -


 With contributions from (in alphabetic order):
[Max-Planck-Institut fuer Kohlenforschung]                               
  Daniel Aravena         : Magnetic Suceptibility                        
  Michael Atanasov       : Ab Initio Ligand Field Theory (pilot matlab implementation)
  Alexander A. Auer      : GIAO ZORA, VPT2 properties, NMR spectrum      
  Ute Becker             : All parallelization in ORCA, NUMFREQ, NUMCALC 
  Giovanni Bistoni       : ED, misc. LED, open-shell LED, HFLD           
  Martin Brehm           : Molecular dynamics                            
  Dmytro Bykov           : pre 5.0 version of the SCF Hessian            
  Marcos Casanova-Páez   : Triplet and SCS-CIS(D). UHF-(DLPNO)-IP/EA/STEOM-CCSD. UHF-CVS-IP/STEOM-CCSD   
  Vijay G. Chilkuri      : MRCI spin determinant printing, contributions to CSF-ICE 
  Pauline Colinet        : FMM embedding                                 
  Dipayan Datta          : RHF DLPNO-CCSD density                        
  Achintya Kumar Dutta   : EOM-CC, STEOM-CC                              
  Nicolas Foglia         : Exact transition moments, OPA infrastructure, MCD improvements    
  Dmitry Ganyushin       : Spin-Orbit,Spin-Spin,Magnetic field MRCI      
  Miquel Garcia-Rates    : C-PCM and meta-GGA Hessian, CCSD/C-PCM, Gaussian charge scheme 
  Tiago L. C. Gouveia    : GS-ROHF, GS-ROCIS                             
  Yang Guo               : DLPNO-NEVPT2, F12-NEVPT2, CIM, IAO-localization        
  Andreas Hansen         : Spin unrestricted coupled pair/coupled cluster methods 
  Ingolf Harden          : AUTO-CI MPn and infrastructure                
  Benjamin Helmich-Paris : MC-RPA, TRAH-(SCF,CASSCF), AVAS, COSX integrals, SCF dyn. polar. 
  Lee Huntington         : MR-EOM, pCC                                   
  Robert Izsak           : Overlap fitted RIJCOSX, COSX-SCS-MP3, EOM     
  Riya Kayal             : Wick's Theorem for AUTO-CI, AUTO-CI UHF-CCSDT 
  Emily Kempfer          : AUTO-CI, RHF CISDT and CCSDT                  
  Christian Kollmar      : KDIIS, OOCD, Brueckner-CCSD(T), CCSD density, CASPT2, CASPT2-K, improved NEVPT2 
  Axel Koslowski         : Symmetry handling                             
  Simone Kossmann        : meta-GGA functionals, TD-DFT gradient, OOMP2, (MP2 Hessian; deprecated post 5.0) 
  Lucas Lang             : DCDCAS                                        
  Marvin Lechner         : AUTO-CI (C++ implementation), FIC-MRCC        
  Spencer Leger          : CASSCF response                               
  Dagmar Lenk            : GEPOL surface, SMD, ORCA-2-JSON               
  Dimitrios Liakos       : Extrapolation schemes; Compound Job, initial MDCI parallelization 
  Dimitrios Manganas     : Further ROCIS development; embedding schemes. LFT, Crystal Embedding 
  Dimitrios Pantazis     : SARC Basis sets                               
  Anastasios Papadopoulos: AUTO-CI, single reference methods and gradients 
  Taras Petrenko         : pre 6.0 DFT Hessian and TD-DFT gradient, (ASA, deprecated), ECA, 1-Electron XAS/XES, NRVS 
  Peter Pinski           : DLPNO-MP2, DLPNO-MP2 Gradient                 
  Christoph Reimann      : Effective Core Potentials                     
  Marius Retegan         : Local ZFS, SOC                                
  Christoph Riplinger    : Optimizer, TS searches, QM/MM, DLPNO-CCSD(T), (RO)-DLPNO pert. Triples 
  Michael Roemelt        : Original ROCIS implementation                 
  Masaaki Saitow         : Open-shell DLPNO-CCSD energy and density      
  Barbara Sandhoefer     : DKH picture change effects                    
  Kantharuban Sivalingam : CASSCF convergence/infrastructure, NEVPT2 and variants, FIC-MRCI 
  Bernardo de Souza      : ESD, SOC TD-DFT                               
  Georgi L. Stoychev     : AutoAux, RI-MP2 NMR, DLPNO-MP2 response, X2C  
  Van Anh Tran           : RI-MP2 g-tensors                              
  Willem Van den Heuvel  : Paramagnetic NMR                              
  Zikuan Wang            : NOTCH, Electric field optimization            
  Frank Wennmohs         : Technical directorship and infrastructure     
  Hang Xu                : AUTO-CI-Response properties                   
                                                                         
[FACCTs GmbH]                                                            
  Markus Bursch, Miquel Garcia-Rates, Christoph Riplinger, Bernardo de Souza, Georgi L. Stoychev 
                                                                 
  APM, Basis sets (HGBS, AHGBS, def-TZVP (Ac-Lr), def2-XVPD (La-Lu)), CI-OPT, improved COSX, DLPNO-Multilevel,           
  DOCKER, DRACO, updates on ESD, GOAT, IRC, LR-CPCM, MBIS, meta-GGA TD-DFT gradient, ML-optimized integration grids, 
  MM, NACMEs, nearIR, NEB, NEB-TS, NL-DFT gradient (VV10), 2- and 3-layer-ONIOM, interface openCOSMO-RS, QMMM,   
  Crystal-QMMM, SF, symmetry and pop. for TD-DFT, r2SCAN hybrids, SOLVATOR                                   
                                                                         
[Other institutions]                                                     
  V. Asgeirsson          : NEB                                           
  Christoph Bannwarth    : sTDA-DFT, sTD-DFT, PBEh-3c, B97-3c, D3        
  Sebastian Ehlert       : rSCAN, r2SCAN, r2SCAN-3c, D4, dhf basis sets  
  Marvin Friede          : D4 for Fr, Ra, Ac-Lr                          
  Lars Goerigk           : TD-DFT with DH, B97 family of functionals     
  Stefan Grimme          : VdW corrections, initial TS optimization, DFT functionals, gCP, sTDA/sTD-DF 
  Waldemar Hujo          : DFT-NL                                        
  H. Jonsson             : NEB                                           
  Holger Kruse           : gCP                                           
  Marcel Mueller         : wB97X-3c, vDZP basis set                      
  Hagen Neugebauer       : wr2SCAN                                       
  Tobias Risthaus        : range-separated hybrid DFT                    
  Lukas Wittmann         : regularized MP2, r2SCAN double-hybrids, wr2SCAN        
                                                                         
We gratefully acknowledge several colleagues who have allowed us to      
interface, adapt or use parts of their codes:                            
  Ed Valeev, F. Pavosevic, A. Kumar             : LibInt (2-el integral package), F12 methods 
  Garnet Chan, S. Sharma, J. Yang, R. Olivares  : DMRG                   
  Ulf Ekstrom                                   : XCFun DFT Library      
  Mihaly Kallay                                 : mrcc  (arbitrary order and MRCC methods)
  Frank Weinhold                                : gennbo (NPA and NBO analysis)           
  Simon Mueller                                 : openCOSMO-RS                            
  Christopher J. Cramer and Donald G. Truhlar   : smd solvation model                     
  S Lehtola, MJT Oliveira, MAL Marques          : LibXC Library                           
  Liviu Ungur et al                             : ANISO software                          


 Your calculation uses the libint2 library for the computation of 2-el integrals
 For citations please refer to: http://libint.valeyev.net

 Your ORCA version has been built with support for libXC version: 6.2.2
 For citations please refer to: https://libxc.gitlab.io

 This ORCA versions uses:
   CBLAS   interface :  Fast vector & matrix operations
   LAPACKE interface :  Fast linear algebra routines
   SCALAPACK package :  Parallel linear algebra routines
   Shared memory     :  Shared parallel matrices
   BLAS/LAPACK       :  OpenBLAS 0.3.27  USE64BITINT DYNAMIC_ARCH NO_AFFINITY Cooperlake SINGLE_THREADED
        Core in use  :  Cooperlake
   Copyright (c) 2011-2014, The OpenBLAS Project


NOTE: MaxCore=3600 MB was set to SCF,MP2,MDCI,CIPSI,MRCI and CIS
      => If you want to overwrite this, your respective input block should be placed after the MaxCore statement
Warning: RI is on but no J-basis has been assigned. Assigning Def2/J (nothing to worry about!)
================================================================================

----- Orbital basis set information -----
Your calculation utilizes the basis: def2-TZVP
   F. Weigend and R. Ahlrichs, Phys. Chem. Chem. Phys. 7, 3297 (2005).

----- AuxJ basis set information -----
Your calculation utilizes the auxiliary basis: def2/J
   F. Weigend, Phys. Chem. Chem. Phys. 8, 1057 (2006).

================================================================================
                                        WARNINGS
                       Please study these warnings very carefully!
================================================================================


WARNING: your system is open-shell and RHF/RKS was chosen
  ===> : WILL SWITCH to UHF/UKS


WARNING: Geometry Optimization
  ===> : Switching off AutoStart
         For restart on a previous wavefunction, please use MOREAD

================================================================================
                                       INPUT FILE
================================================================================
NAME = UHEZOX-S6.inp
|  1> ! PBE0 def2-TZVP  Opt Freq DEFGRID3
|  2> 
|  3> %maxcore 3600
|  4> 
|  5> %pal
|  6>     nprocs 16
|  7> end
|  8> 
|  9> *xyz 0 2
| 10> C 7.0785 10.2167 5.9897
| 11> C 7.2436 10.6314 7.3282
| 12> H 7.3771 9.9908 7.9889
| 13> C 7.2134 11.9608 7.6762
| 14> H 7.3258 12.2048 8.567
| 15> C 7.0169 12.95 6.7122
| 16> H 7.0093 13.8491 6.9519
| 17> C 6.8359 12.5762 5.4017
| 18> H 6.7042 13.2313 4.756
| 19> C 6.8468 11.2144 5.0155
| 20> C 6.6045 10.9451 3.6133
| 21> H 6.4902 11.6771 3.0515
| 22> C 6.3346 9.6662 1.6311
| 23> H 7.1908 9.6218 1.1778
| 24> H 5.8499 10.4379 1.297
| 25> C 5.5438 8.4042 1.377
| 26> H 4.6413 8.5039 1.7166
| 27> H 5.493 8.2299 0.4237
| 28> C 5.3944 6.0507 2.0077
| 29> H 5.164 5.8716 1.0831
| 30> H 4.568 6.2106 2.491
| 31> C 6.0657 4.8271 2.5858
| 32> H 6.9263 4.7105 2.1526
| 33> H 5.5251 4.0482 2.38
| 34> C 6.2826 4.8872 4.098
| 35> H 5.4431 5.0879 4.5407
| 36> H 6.5943 4.0254 4.4175
| 37> C 8.4089 5.5387 4.8893
| 38> H 8.4857 4.6528 5.1608
| 39> C 9.5736 6.374 5.0285
| 40> C 10.6566 5.9041 5.791
| 41> H 10.5859 5.0867 6.2276
| 42> C 11.8221 6.6349 5.9047
| 43> H 12.5167 6.3368 6.4455
| 44> C 11.9387 7.8344 5.1896
| 45> H 12.7285 8.3236 5.2433
| 46> C 10.9037 8.3044 4.4087
| 47> H 11.0144 9.0941 3.9315
| 48> C 9.6843 7.6073 4.3213
| 49> N 6.5343 9.7848 3.0845
| 50> N 6.2215 7.2756 2.0624
| 51> H 7.0217 7.0796 1.6814
| 52> N 7.2697 5.9175 4.4197
| 53> O 7.1563 8.9348 5.7041
| 54> O 8.7175 8.0617 3.5653
| 55> Fe 6.8201 7.9622 4.0875
| 56> Cl 4.5476 7.6665 4.7872
| 57> *
| 58> 
| 59>                          ****END OF INPUT****
================================================================================

                       *****************************
                       * Geometry Optimization Run *
                       *****************************

Geometry optimization settings:
Update method            Update   .... BFGS
Choice of coordinates    CoordSys .... (2022) Redundant Internals
Initial Hessian          InHess   .... Almloef's Model
Max. no of cycles        MaxIter  .... 141

Convergence Tolerances:
Energy Change            TolE     ....  5.0000e-06 Eh
Max. Gradient            TolMAXG  ....  3.0000e-04 Eh/bohr
RMS Gradient             TolRMSG  ....  1.0000e-04 Eh/bohr
Max. Displacement        TolMAXD  ....  4.0000e-03 bohr
RMS Displacement         TolRMSD  ....  2.0000e-03 bohr
Strict Convergence                .... False

------------------------------------------------------------------------------
                        ORCA OPTIMIZATION COORDINATE SETUP
------------------------------------------------------------------------------

The optimization will be done in redundant internal coordinates (2022)
Making redundant internal coordinates   ...  (2022 redundants) done
Evaluating the initial hessian          ...  (Almloef) done
Evaluating the coordinates              ...  done
Calculating the B-matrix                .... done
Calculating the G-matrix                .... done
Diagonalizing the G-matrix              .... done
Small eigenvalue found = 1.080e-02
Small eigenvalue found = 1.892e-02
Small eigenvalue found = 2.893e-02
The first mode is                       ....  156
The number of degrees of freedom        ....  135

    -----------------------------------------------------------------
                    Redundant Internal Coordinates


    -----------------------------------------------------------------
         Definition                    Initial Value    Approx d2E/dq
    -----------------------------------------------------------------
      1. B(C   1,C   0)                  1.4110         0.578487   
      2. B(H   2,C   1)                  0.9299         0.648413   
      3. B(C   3,C   1)                  1.3745         0.661344   
      4. B(H   4,C   3)                  0.9304         0.647160   
      5. B(C   5,C   3)                  1.3951         0.613102   
      6. B(H   6,C   5)                  0.9305         0.646904   
      7. B(C   7,C   5)                  1.3747         0.660834   
      8. B(H   8,C   7)                  0.9292         0.650062   
      9. B(C   9,C   7)                  1.4155         0.568830   
     10. B(C   9,C   0)                  1.4136         0.572991   
     11. B(C  10,C   9)                  1.4482         0.504454   
     12. B(H  11,C  10)                  0.9298         0.648678   
     13. B(H  13,C  12)                  0.9698         0.559989   
     14. B(H  14,C  12)                  0.9706         0.558351   
     15. B(C  15,C  12)                  1.5108         0.400847   
     16. B(H  16,C  15)                  0.9694         0.560791   
     17. B(H  17,C  15)                  0.9704         0.558706   
     18. B(H  19,C  18)                  0.9696         0.560503   
     19. B(H  20,C  18)                  0.9706         0.558344   
     20. B(C  21,C  18)                  1.5106         0.401108   
     21. B(H  22,C  21)                  0.9705         0.558549   
     22. B(H  23,C  21)                  0.9702         0.559187   
     23. B(C  24,C  21)                  1.5289         0.375145   
     24. B(H  25,C  24)                  0.9701         0.559466   
     25. B(H  26,C  24)                  0.9705         0.558500   
     26. B(H  28,C  27)                  0.9297         0.648779   
     27. B(C  29,C  27)                  1.4400         0.519937   
     28. B(C  30,C  29)                  1.4054         0.590468   
     29. B(H  31,C  30)                  0.9294         0.649636   
     30. B(C  32,C  30)                  1.3804         0.647325   
     31. B(H  33,C  32)                  0.9294         0.649589   
     32. B(C  34,C  32)                  1.4013         0.599295   
     33. B(H  35,C  34)                  0.9306         0.646790   
     34. B(C  36,C  34)                  1.3791         0.650311   
     35. B(H  37,C  36)                  0.9293         0.649842   
     36. B(C  38,C  36)                  1.4073         0.586301   
     37. B(C  38,C  29)                  1.4260         0.547440   
     38. B(N  39,C  12)                  1.4718         0.414288   
     39. B(N  39,C  10)                  1.2770         0.847387   
     40. B(N  40,C  18)                  1.4790         0.403523   
     41. B(N  40,C  15)                  1.4842         0.395930   
     42. B(H  41,N  40)                  0.9077         0.630126   
     43. B(N  42,C  27)                  1.2891         0.810677   
     44. B(N  42,C  24)                  1.4627         0.428500   
     45. B(O  43,C   0)                  1.3156         0.735402   
     46. B(O  44,C  38)                  1.3087         0.754347   
     47. B(Fe 45,O  44)                  1.9705         0.671290   
     48. B(Fe 45,O  43)                  1.9163         0.818938   
     49. B(Fe 45,N  42)                  2.1197         0.387925   
     50. B(Fe 45,N  40)                  2.2205         0.267877   
     51. B(Fe 45,N  39)                  2.0999         0.417260   
     52. B(Cl 46,Fe 45)                  2.3961         0.352126   
     53. A(C   9,C   0,O  43)          123.2158         0.438416   
     54. A(C   1,C   0,C   9)          117.7440         0.422687   
     55. A(C   1,C   0,O  43)          119.0381         0.439171   
     56. A(C   0,C   1,C   3)          121.4577         0.433695   
     57. A(H   2,C   1,C   3)          119.3106         0.394923   
     58. A(C   0,C   1,H   2)          119.2316         0.385794   
     59. A(C   1,C   3,C   5)          120.9246         0.438259   
     60. A(H   4,C   3,C   5)          119.5126         0.389592   
     61. A(C   1,C   3,H   4)          119.5628         0.394789   
     62. A(C   3,C   5,H   6)          120.5467         0.389565   
     63. A(H   6,C   5,C   7)          120.4778         0.394709   
     64. A(C   3,C   5,C   7)          118.9755         0.438198   
     65. A(C   5,C   7,C   9)          121.3758         0.432324   
     66. A(H   8,C   7,C   9)          119.3239         0.384835   
     67. A(C   5,C   7,H   8)          119.3003         0.395046   
     68. A(C   7,C   9,C  10)          116.2160         0.411970   
     69. A(C   0,C   9,C  10)          124.2948         0.412503   
     70. A(C   0,C   9,C   7)          119.4881         0.421418   
     71. A(C   9,C  10,H  11)          117.3347         0.376763   
     72. A(C   9,C  10,N  39)          125.3847         0.439552   
     73. A(H  11,C  10,N  39)          117.2806         0.409945   
     74. A(H  13,C  12,H  14)          108.4446         0.335332   
     75. A(H  14,C  12,N  39)          110.0960         0.352846   
     76. A(H  13,C  12,N  39)          110.2098         0.353021   
     77. A(C  15,C  12,N  39)          107.7225         0.372018   
     78. A(H  13,C  12,C  15)          110.1972         0.353231   
     79. A(H  14,C  12,C  15)          110.1725         0.353056   
     80. A(H  16,C  15,N  40)          109.9698         0.350411   
     81. A(C  12,C  15,N  40)          108.5730         0.369129   
     82. A(H  16,C  15,H  17)          108.2923         0.335448   
     83. A(C  12,C  15,H  17)          110.0383         0.353094   
     84. A(C  12,C  15,H  16)          110.0272         0.353317   
     85. A(H  17,C  15,N  40)          109.9362         0.350190   
     86. A(H  20,C  18,C  21)          108.7381         0.353095   
     87. A(H  19,C  18,C  21)          108.7183         0.353325   
     88. A(H  19,C  18,H  20)          107.6348         0.335383   
     89. A(C  21,C  18,N  40)          114.0893         0.370377   
     90. A(H  20,C  18,N  40)          108.7406         0.351277   
     91. A(H  19,C  18,N  40)          108.7322         0.351507   
     92. A(H  22,C  21,C  24)          108.6883         0.349146   
     93. A(C  18,C  21,C  24)          114.1872         0.368068   
     94. A(H  22,C  21,H  23)          107.6358         0.335272   
     95. A(C  18,C  21,H  23)          108.7531         0.353185   
     96. A(C  18,C  21,H  22)          108.6963         0.353116   
     97. A(H  23,C  21,C  24)          108.6884         0.349214   
     98. A(H  25,C  24,H  26)          108.1446         0.335295   
     99. A(H  25,C  24,N  42)          109.7505         0.354988   
    100. A(H  26,C  24,N  42)          109.6538         0.354884   
    101. A(C  21,C  24,N  42)          109.9365         0.369941   
    102. A(C  21,C  24,H  26)          109.6498         0.349141   
    103. A(C  21,C  24,H  25)          109.6788         0.349243   
    104. A(H  28,C  27,C  29)          117.2369         0.378748   
    105. A(C  29,C  27,N  42)          125.4170         0.438439   
    106. A(H  28,C  27,N  42)          117.3460         0.406755   
    107. A(C  30,C  29,C  38)          119.8963         0.420795   
    108. A(C  27,C  29,C  38)          121.1001         0.411379   
    109. A(C  27,C  29,C  30)          118.8015         0.416947   
    110. A(H  31,C  30,C  32)          119.4175         0.393573   
    111. A(C  29,C  30,C  32)          121.2205         0.433623   
    112. A(C  29,C  30,H  31)          119.3619         0.387301   
    113. A(H  33,C  32,C  34)          120.6164         0.388300   
    114. A(C  30,C  32,C  34)          118.7764         0.434782   
    115. A(C  30,C  32,H  33)          120.6071         0.393568   
    116. A(H  35,C  34,C  36)          119.3714         0.393588   
    117. A(C  32,C  34,C  36)          121.2127         0.435143   
    118. A(C  32,C  34,H  35)          119.4158         0.388007   
    119. A(H  37,C  36,C  38)          119.4890         0.386845   
    120. A(C  34,C  36,C  38)          121.1065         0.433430   
    121. A(C  34,C  36,H  37)          119.4044         0.393913   
    122. A(C  29,C  38,C  36)          117.7022         0.420264   
    123. A(C  36,C  38,O  44)          120.2643         0.442264   
    124. A(C  29,C  38,O  44)          121.9674         0.436823   
    125. A(C  10,N  39,C  12)          119.3118         0.421512   
    126. A(C  12,N  39,Fe 45)          114.8463         0.416924   
    127. A(C  10,N  39,Fe 45)          125.6855         0.474580   
    128. A(H  41,N  40,Fe 45)          102.2349         0.370119   
    129. A(C  18,N  40,Fe 45)          116.1398         0.383864   
    130. A(C  15,N  40,Fe 45)          108.0066         0.382599   
    131. A(C  18,N  40,H  41)          107.3762         0.355415   
    132. A(C  15,N  40,H  41)          111.8947         0.354272   
    133. A(C  15,N  40,C  18)          110.9370         0.367243   
    134. A(C  27,N  42,Fe 45)          121.8685         0.464487   
    135. A(C  24,N  42,Fe 45)          120.1229         0.414029   
    136. A(C  24,N  42,C  27)          118.0034         0.420719   
    137. A(C   0,O  43,Fe 45)          131.8566         0.523974   
    138. A(C  38,O  44,Fe 45)          122.7333         0.507236   
    139. A(O  43,Fe 45,Cl 46)           89.0077         0.535510   
    140. A(N  42,Fe 45,Cl 46)           92.0835         0.466037   
    141. A(N  40,Fe 45,Cl 46)           88.4234         0.435726   
    142. A(N  39,Fe 45,Cl 46)           96.7485         0.472309   
    143. A(O  43,Fe 45,O  44)           91.6618         0.582288   
    144. A(N  42,Fe 45,O  44)           83.4542         0.505536   
    145. A(N  40,Fe 45,O  44)           91.9200         0.472050   
    146. A(N  39,Fe 45,O  44)           87.7446         0.512466   
    147. A(N  42,Fe 45,O  43)          108.6718         0.524708   
    148. A(N  40,Fe 45,O  43)          166.7961         0.489680   
    149. A(N  39,Fe 45,O  43)           89.2151         0.531956   
    150. A(N  40,Fe 45,N  42)           84.3669         0.427338   
    151. A(N  39,Fe 45,N  42)          160.2108         0.463036   
    152. A(N  39,Fe 45,N  40)           78.2337         0.432966   
    153. D(C   3,C   1,C   0,O  43)    177.9521         0.022986   
    154. D(H   2,C   1,C   0,C   9)    178.5704         0.022986   
    155. D(C   3,C   1,C   0,C   9)     -1.5276         0.022986   
    156. D(H   2,C   1,C   0,O  43)     -1.9499         0.022986   
    157. D(C   5,C   3,C   1,H   2)    179.9256         0.030529   
    158. D(C   5,C   3,C   1,C   0)      0.0237         0.030529   
    159. D(H   4,C   3,C   1,H   2)     -0.0556         0.030529   
    160. D(H   4,C   3,C   1,C   0)   -179.9575         0.030529   
    161. D(H   6,C   5,C   3,C   1)   -179.1374         0.025976   
    162. D(C   7,C   5,C   3,C   1)      0.7971         0.025976   
    163. D(C   7,C   5,C   3,H   4)   -179.2217         0.025976   
    164. D(H   6,C   5,C   3,H   4)      0.8438         0.025976   
    165. D(C   9,C   7,C   5,C   3)     -0.0707         0.030478   
    166. D(H   8,C   7,C   5,C   3)    179.9681         0.030478   
    167. D(C   9,C   7,C   5,H   6)    179.8638         0.030478   
    168. D(H   8,C   7,C   5,H   6)     -0.0973         0.030478   
    169. D(C  10,C   9,C   7,H   8)     -1.8646         0.022192   
    170. D(C  10,C   9,C   7,C   5)    178.1742         0.022192   
    171. D(C   0,C   9,C   7,C   5)     -1.4565         0.022192   
    172. D(C   0,C   9,C   7,H   8)    178.5046         0.022192   
    173. D(C  10,C   9,C   0,C   1)   -177.3957         0.022532   
    174. D(C   7,C   9,C   0,O  43)   -177.2529         0.022532   
    175. D(C   7,C   9,C   0,C   1)      2.2033         0.022532   
    176. D(C  10,C   9,C   0,O  43)      3.1480         0.022532   
    177. D(N  39,C  10,C   9,C   7)   -177.6948         0.017337   
    178. D(H  11,C  10,C   9,C   7)      2.2764         0.017337   
    179. D(N  39,C  10,C   9,C   0)      1.9162         0.017337   
    180. D(H  11,C  10,C   9,C   0)   -178.1126         0.017337   
    181. D(H  16,C  15,C  12,N  39)     68.2143         0.012747   
    182. D(H  16,C  15,C  12,H  13)   -171.5212         0.012747   
    183. D(H  16,C  15,C  12,H  14)    -51.8977         0.012747   
    184. D(H  17,C  15,C  12,H  14)     67.3469         0.012747   
    185. D(H  17,C  15,C  12,N  39)   -172.5411         0.012747   
    186. D(H  17,C  15,C  12,H  13)    -52.2766         0.012747   
    187. D(H  23,C  21,C  18,N  40)   -170.7149         0.012763   
    188. D(H  23,C  21,C  18,H  20)     67.7314         0.012763   
    189. D(H  23,C  21,C  18,H  19)    -49.1864         0.012763   
    190. D(H  22,C  21,C  18,H  20)   -175.3536         0.012763   
    191. D(H  22,C  21,C  18,H  19)     67.7286         0.012763   
    192. D(H  22,C  21,C  18,N  40)    -53.7998         0.012763   
    193. D(H  26,C  24,C  21,H  22)    -66.7414         0.011232   
    194. D(H  26,C  24,C  21,H  23)     50.1335         0.011232   
    195. D(H  26,C  24,C  21,C  18)    171.7326         0.011232   
    196. D(H  25,C  24,C  21,H  23)    -68.4789         0.011232   
    197. D(H  25,C  24,C  21,H  22)    174.6462         0.011232   
    198. D(H  25,C  24,C  21,C  18)     53.1202         0.011232   
    199. D(C  38,C  29,C  27,N  42)    -17.4932         0.018436   
    200. D(C  38,C  29,C  27,H  28)    162.5025         0.018436   
    201. D(C  30,C  29,C  27,N  42)    167.6788         0.018436   
    202. D(C  30,C  29,C  27,H  28)    -12.3255         0.018436   
    203. D(C  32,C  30,C  29,C  38)      1.9691         0.023995   
    204. D(C  32,C  30,C  29,C  27)    176.8609         0.023995   
    205. D(H  31,C  30,C  29,C  38)   -178.1192         0.023995   
    206. D(H  31,C  30,C  29,C  27)     -3.2274         0.023995   
    207. D(C  34,C  32,C  30,H  31)    176.9790         0.029159   
    208. D(C  34,C  32,C  30,C  29)     -3.1093         0.029159   
    209. D(H  33,C  32,C  30,H  31)     -3.0140         0.029159   
    210. D(H  33,C  32,C  30,C  29)    176.8977         0.029159   
    211. D(H  35,C  34,C  32,H  33)      1.4838         0.024756   
    212. D(H  35,C  34,C  32,C  30)   -178.5093         0.024756   
    213. D(C  36,C  34,C  32,C  30)      1.5710         0.024756   
    214. D(C  36,C  34,C  32,H  33)   -178.4360         0.024756   
    215. D(H  37,C  36,C  34,C  32)   -178.7715         0.029448   
    216. D(C  38,C  36,C  34,H  35)   -178.7790         0.029448   
    217. D(C  38,C  36,C  34,C  32)      1.1408         0.029448   
    218. D(H  37,C  36,C  34,H  35)      1.3087         0.029448   
    219. D(O  44,C  38,C  36,H  37)      0.5569         0.023641   
    220. D(O  44,C  38,C  36,C  34)   -179.3553         0.023641   
    221. D(C  29,C  38,C  36,H  37)    177.6597         0.023641   
    222. D(C  29,C  38,C  36,C  34)     -2.2525         0.023641   
    223. D(O  44,C  38,C  29,C  30)    177.7770         0.020495   
    224. D(C  36,C  38,C  29,C  30)      0.7268         0.020495   
    225. D(O  44,C  38,C  29,C  27)      3.0050         0.020495   
    226. D(C  36,C  38,C  29,C  27)   -174.0452         0.020495   
    227. D(Fe 45,N  39,C  12,H  14)    155.9289         0.014638   
    228. D(Fe 45,N  39,C  12,H  13)    -84.4881         0.014638   
    229. D(C  10,N  39,C  12,C  15)   -148.5188         0.014638   
    230. D(C  10,N  39,C  12,H  14)    -28.3584         0.014638   
    231. D(C  10,N  39,C  12,H  13)     91.2246         0.014638   
    232. D(Fe 45,N  39,C  10,H  11)    177.6410         0.062120   
    233. D(Fe 45,N  39,C  10,C   9)     -2.3878         0.062120   
    234. D(C  12,N  39,C  10,H  11)      2.4320         0.062120   
    235. D(C  12,N  39,C  10,C   9)   -177.5968         0.062120   
    236. D(H  41,N  40,C  18,H  20)    174.2558         0.014878   
    237. D(H  41,N  40,C  18,H  19)    -68.8172         0.014878   
    238. D(C  15,N  40,C  18,C  21)    175.2567         0.014878   
    239. D(C  15,N  40,C  18,H  20)    -63.1909         0.014878   
    240. D(C  15,N  40,C  18,H  19)     53.7360         0.014878   
    241. D(H  41,N  40,C  15,H  17)     52.4072         0.014330   
    242. D(H  41,N  40,C  15,H  16)    171.5529         0.014330   
    243. D(H  41,N  40,C  15,C  12)    -68.0166         0.014330   
    244. D(C  18,N  40,C  15,H  17)    -67.4856         0.014330   
    245. D(C  18,N  40,C  15,H  16)     51.6601         0.014330   
    246. D(H  41,N  40,C  18,C  21)     52.7035         0.014878   
    247. D(C  18,N  40,C  15,C  12)    172.0906         0.014330   
    248. D(Fe 45,N  42,C  27,C  29)    -11.2537         0.056214   
    249. D(C  24,N  42,C  27,C  29)    167.9176         0.056214   
    250. D(C  24,N  42,C  27,H  28)    -12.0781         0.056214   
    251. D(Fe 45,N  42,C  24,H  25)    -53.7651         0.015654   
    252. D(Fe 45,N  42,C  24,C  21)     66.9544         0.015654   
    253. D(C  27,N  42,C  24,H  26)      8.3905         0.015654   
    254. D(Fe 45,N  42,C  27,H  28)    168.7506         0.056214   
    255. D(C  27,N  42,C  24,H  25)    127.0485         0.015654   
    256. D(C  27,N  42,C  24,C  21)   -112.2319         0.015654   
    257. D(Fe 45,O  43,C   0,C   9)     -7.7392         0.040903   
    258. D(Fe 45,O  43,C   0,C   1)    172.8112         0.040903   
    259. D(Fe 45,O  44,C  38,C  36)   -141.7256         0.043272   
    260. D(Fe 45,O  44,C  38,C  29)     41.2982         0.043272   
    261. D(N  40,Fe 45,N  42,C  24)    -50.1944         0.002293   
    262. D(N  39,Fe 45,N  42,C  27)    100.5258         0.002293   
    263. D(N  39,Fe 45,N  42,C  24)    -78.6283         0.002293   
    264. D(O  43,Fe 45,N  40,C  15)     -0.7524         0.001907   
    265. D(N  42,Fe 45,N  40,H  41)    -71.4944         0.001907   
    266. D(N  42,Fe 45,N  40,C  18)     45.0454         0.001907   
    267. D(N  42,Fe 45,N  40,C  15)    170.3605         0.001907   
    268. D(N  39,Fe 45,N  40,H  41)     99.0279         0.001907   
    269. D(N  39,Fe 45,N  40,C  18)   -144.4323         0.001907   
    270. D(N  39,Fe 45,N  40,C  15)    -19.1172         0.001907   
    271. D(O  44,Fe 45,N  39,C  10)    -92.3926         0.002417   
    272. D(O  43,Fe 45,N  39,C  12)    174.6983         0.002417   
    273. D(O  43,Fe 45,N  39,C  10)     -0.6984         0.002417   
    274. D(O  43,Fe 45,N  40,C  18)   -126.0675         0.001907   
    275. D(N  42,Fe 45,N  39,C  12)     19.5190         0.002417   
    276. D(N  42,Fe 45,N  39,C  10)   -155.8777         0.002417   
    277. D(N  40,Fe 45,N  39,C  12)     -9.4290         0.002417   
    278. D(N  40,Fe 45,N  42,C  27)    128.9597         0.002293   
    279. D(N  40,Fe 45,N  39,C  10)    175.1743         0.002417   
    280. D(N  42,Fe 45,O  44,C  38)    -51.4776         0.003720   
    281. D(N  40,Fe 45,O  44,C  38)   -135.5827         0.003720   
    282. D(N  39,Fe 45,O  44,C  38)    146.2768         0.003720   
    283. D(Cl 46,Fe 45,O  43,C   0)    -90.9483         0.004821   
    284. D(O  44,Fe 45,O  43,C   0)     93.5362         0.004821   
    285. D(N  42,Fe 45,O  43,C   0)    177.1876         0.004821   
    286. D(N  40,Fe 45,O  43,C   0)    -12.1518         0.004821   
    287. D(N  39,Fe 45,O  43,C   0)      5.8155         0.004821   
    288. D(O  44,Fe 45,N  42,C  24)   -142.7853         0.002293   
    289. D(O  43,Fe 45,N  42,C  27)    -53.1749         0.002293   
    290. D(O  43,Fe 45,O  44,C  38)     57.1281         0.003720   
    291. D(O  43,Fe 45,N  42,C  24)    127.6710         0.002293   
    -----------------------------------------------------------------

Number of atoms                         .... 47
Number of degrees of freedom            .... 291


         *************************************************************
         *                GEOMETRY OPTIMIZATION CYCLE   1            *
         *************************************************************
---------------------------------
CARTESIAN COORDINATES (ANGSTROEM)
---------------------------------
  C      7.078500   10.216700    5.989700
  C      7.243600   10.631400    7.328200
  H      7.377100    9.990800    7.988900
  C      7.213400   11.960800    7.676200
  H      7.325800   12.204800    8.567000
  C      7.016900   12.950000    6.712200
  H      7.009300   13.849100    6.951900
  C      6.835900   12.576200    5.401700
  H      6.704200   13.231300    4.756000
  C      6.846800   11.214400    5.015500
  C      6.604500   10.945100    3.613300
  H      6.490200   11.677100    3.051500
  C      6.334600    9.666200    1.631100
  H      7.190800    9.621800    1.177800
  H      5.849900   10.437900    1.297000
  C      5.543800    8.404200    1.377000
  H      4.641300    8.503900    1.716600
  H      5.493000    8.229900    0.423700
  C      5.394400    6.050700    2.007700
  H      5.164000    5.871600    1.083100
  H      4.568000    6.210600    2.491000
  C      6.065700    4.827100    2.585800
  H      6.926300    4.710500    2.152600
  H      5.525100    4.048200    2.380000
  C      6.282600    4.887200    4.098000
  H      5.443100    5.087900    4.540700
  H      6.594300    4.025400    4.417500
  C      8.408900    5.538700    4.889300
  H      8.485700    4.652800    5.160800
  C      9.573600    6.374000    5.028500
  C     10.656600    5.904100    5.791000
  H     10.585900    5.086700    6.227600
  C     11.822100    6.634900    5.904700
  H     12.516700    6.336800    6.445500
  C     11.938700    7.834400    5.189600
  H     12.728500    8.323600    5.243300
  C     10.903700    8.304400    4.408700
  H     11.014400    9.094100    3.931500
  C      9.684300    7.607300    4.321300
  N      6.534300    9.784800    3.084500
  N      6.221500    7.275600    2.062400
  H      7.021700    7.079600    1.681400
  N      7.269700    5.917500    4.419700
  O      7.156300    8.934800    5.704100
  O      8.717500    8.061700    3.565300
  Fe     6.820100    7.962200    4.087500
  Cl     4.547600    7.666500    4.787200

----------------------------
CARTESIAN COORDINATES (A.U.)
----------------------------
  NO LB      ZA    FRAG     MASS         X           Y           Z
   0 C     6.0000    0    12.011   13.376426   19.306765   11.318893
   1 C     6.0000    0    12.011   13.688420   20.090434   13.848291
   2 H     1.0000    0     1.008   13.940699   18.879876   15.096833
   3 C     6.0000    0    12.011   13.631350   22.602636   14.505916
   4 H     1.0000    0     1.008   13.843756   23.063730   16.189284
   5 C     6.0000    0    12.011   13.260019   24.471953   12.684220
   6 H     1.0000    0     1.008   13.245657   26.171006   13.137187
   7 C     6.0000    0    12.011   12.917979   23.765574   10.207734
   8 H     1.0000    0     1.008   12.669102   25.003533    8.987537
   9 C     6.0000    0    12.011   12.938577   21.192145    9.477921
  10 C     6.0000    0    12.011   12.480696   20.683242    6.828147
  11 H     1.0000    0     1.008   12.264701   22.066521    5.766499
  12 C     6.0000    0    12.011   11.970659   18.266471    3.082332
  13 H     1.0000    0     1.008   13.588643   18.182567    2.225719
  14 H     1.0000    0     1.008   11.054709   19.724772    2.450975
  15 C     6.0000    0    12.011   10.476264   15.881636    2.602153
  16 H     1.0000    0     1.008    8.770786   16.070042    3.243904
  17 H     1.0000    0     1.008   10.380266   15.552257    0.800677
  18 C     6.0000    0    12.011   10.193939   11.434166    3.794003
  19 H     1.0000    0     1.008    9.758546   11.095716    2.046762
  20 H     1.0000    0     1.008    8.632269   11.736333    4.707308
  21 C     6.0000    0    12.011   11.462512    9.121897    4.886454
  22 H     1.0000    0     1.008   13.088810    8.901555    4.067824
  23 H     1.0000    0     1.008   10.440926    7.649989    4.497548
  24 C     6.0000    0    12.011   11.872393    9.235470    7.744098
  25 H     1.0000    0     1.008   10.285968    9.614738    8.580679
  26 H     1.0000    0     1.008   12.461421    7.606904    8.347865
  27 C     6.0000    0    12.011   15.890518   10.466626    9.239438
  28 H     1.0000    0     1.008   16.035649    8.792518    9.752499
  29 C     6.0000    0    12.011   18.091482   12.045114    9.502488
  30 C     6.0000    0    12.011   20.138056   11.157132   10.943404
  31 H     1.0000    0     1.008   20.004452    9.612470   11.768458
  32 C     6.0000    0    12.011   22.340531   12.538144   11.158266
  33 H     1.0000    0     1.008   23.653135   11.974817   12.180230
  34 C     6.0000    0    12.011   22.560873   14.804870    9.806923
  35 H     1.0000    0     1.008   24.053379   15.729324    9.908401
  36 C     6.0000    0    12.011   20.605007   15.693042    8.331236
  37 H     1.0000    0     1.008   20.814200   17.185358    7.429458
  38 C     6.0000    0    12.011   18.300675   14.375714    8.166074
  39 N     7.0000    0    14.007   12.348037   18.490592    5.828860
  40 N     7.0000    0    14.007   11.756931   13.748891    3.897371
  41 H     1.0000    0     1.008   13.269090   13.378505    3.177386
  42 N     7.0000    0    14.007   13.737742   11.182454    8.352023
  43 O     8.0000    0    15.999   13.523447   16.884325   10.779187
  44 O     8.0000    0    15.999   16.473688   15.234405    6.737441
  45 Fe   26.0000    0    55.850   12.888121   15.046377    7.724256
  46 Cl   17.0000    0    35.453    8.593719   14.487585    9.046497

--------------------------------
INTERNAL COORDINATES (ANGSTROEM)
--------------------------------
 C      0   0   0     0.000000000000     0.00000000     0.00000000
 C      1   0   0     1.410962915884     0.00000000     0.00000000
 H      2   1   0     0.929900586084   119.23162910     0.00000000
 C      2   1   3     1.374525518133   121.45767132   179.90200524
 H      4   2   1     0.930426998748   119.56277542   180.04250256
 C      4   2   1     1.395143322387   120.92462842     0.02368378
 H      6   4   2     0.930534609781   120.54668531   180.86256759
 C      6   4   2     1.374735498196   118.97552850     0.79706435
 H      8   6   4     0.929209013086   119.30030319   179.96812761
 C      1   2   3     1.413561395908   117.74396479   178.57039306
 C     10   1   2     1.448239144617   124.29482104   182.60427515
 H     11  10   1     0.929789078232   117.33474517   181.88735649
 C     11  10   1     2.374352134794   158.04467564   358.44073636
 H     13  11  10     0.969809615337   108.33158794   266.50228733
 H     13  11  10     0.970606918376    85.17473201   158.65284685
 C     13  11  10     1.510819463073   130.52887505    46.12436496
 H     16  13  11     0.969419671762   110.02724311    49.41681781
 H     16  13  11     0.970433933867   110.03825537   168.66139792
 C     16  13  11     2.441119640657   142.55214922   296.37955156
 H     19  16  13     0.969559760922    86.91897617   217.49221785
 H     19  16  13     0.970610045281    91.25651061   109.89761546
 C     19  16  13     1.510642333579   148.49441463   339.30661582
 H     22  19  16     0.970510257545   108.69632293   311.35537114
 H     22  19  16     0.970199572253   108.75308434   194.44032537
 C     22  19  16     1.528857893985   114.18718019    72.87692263
 H     25  22  19     0.970063930883   109.67878199    53.12017259
 H     25  22  19     0.970534069469   109.64982991   171.73262464
 C     25  22  19     2.360457504383   118.04896711   261.97696016
 H     28  25  22     0.929746901044    84.79682121   249.64337768
 C     28  25  22     1.440010006910   157.08542321    54.41567788
 C     30  28  25     1.405382958485   118.80149112   184.78361270
 H     31  30  28     0.929387330449   119.36194794   356.77264669
 C     31  30  28     1.380357410238   121.22048796   176.86089653
 H     33  31  30     0.929407020632   120.60713401   176.89765452
 C     33  31  30     1.401343576715   118.77642326   356.89072582
 H     35  33  31     0.930582812005   119.41584642   181.49073351
 C     35  33  31     1.379104713211   121.21271537     1.57097727
 H     37  35  33     0.929301038415   119.40441522   181.22847972
 C     37  35  33     1.407310743937   121.10654591     1.14077074
 N     11  10   1     1.277048773540   125.38469609     1.91615721
 N     19  16  13     1.479008624045    34.60029069   347.61231918
 H     41  19  16     0.907687743665   107.37623584   237.44677584
 N     28  25  22     1.289104433318    33.16845322    80.39958413
 O      1   2   3     1.315632095230   119.03807541   358.05007697
 O     39  37  35     1.308708370876   120.26432148   180.64469601
 Fe    44   1   2     1.916344634976   131.85660056   172.81118405
 Cl    46  44   1     2.396095747252    89.00766644   269.05171732

---------------------------
INTERNAL COORDINATES (A.U.)
---------------------------
 C      0   0   0     0.000000000000     0.00000000     0.00000000
 C      1   0   0     2.666333496140     0.00000000     0.00000000
 H      2   1   0     1.757257439472   119.23162910     0.00000000
 C      2   1   3     2.597476793358   121.45767132   179.90200524
 H      4   2   1     1.758252215241   119.56277542   180.04250256
 C      4   2   1     2.636438796880   120.92462842     0.02368378
 H      6   4   2     1.758455570621   120.54668531   180.86256759
 C      6   4   2     2.597873598170   118.97552850     0.79706435
 H      8   6   4     1.755950555904   119.30030319   179.96812761
 C      1   2   3     2.671243911749   117.74396479   178.57039306
 C     10   1   2     2.736775359750   124.29482104   182.60427515
 H     11  10   1     1.757046720170   117.33474517   181.88735649
 C     11  10   1     4.486875280252   158.04467564   358.44073636
 H     13  11  10     1.832674575030   108.33158794   266.50228733
 H     13  11  10     1.834181259421    85.17473201   158.65284685
 C     13  11  10     2.855035023006   130.52887505    46.12436496
 H     16  13  11     1.831937688467   110.02724311    49.41681781
 H     16  13  11     1.833854366072   110.03825537   168.66139792
 C     16  13  11     4.613047580977   142.55214922   296.37955156
 H     19  16  13     1.832202418614    86.91897617   217.49221785
 H     19  16  13     1.834187168414    91.25651061   109.89761546
 C     19  16  13     2.854700296771   148.49441463   339.30661582
 H     22  19  16     1.833998596921   108.69632293   311.35537114
 H     22  19  16     1.833411486806   108.75308434   194.44032537
 C     22  19  16     2.889122717315   114.18718019    72.87692263
 H     25  22  19     1.833155161764   109.67878199    53.12017259
 H     25  22  19     1.834043594936   109.64982991   171.73262464
 C     25  22  19     4.460618234044   118.04896711   261.97696016
 H     28  25  22     1.756967016834    84.79682121   249.64337768
 C     28  25  22     2.721224543165   157.08542321    54.41567788
 C     30  28  25     2.655788904817   118.80149112   184.78361270
 H     31  30  28     1.756287526886   119.36194794   356.77264669
 C     31  30  28     2.608497472279   121.22048796   176.86089653
 H     33  31  30     1.756324735938   120.60713401   176.89765452
 C     33  31  30     2.648155579521   118.77642326   356.89072582
 H     35  33  31     1.758546659625   119.41584642   181.49073351
 C     35  33  31     2.606130217968   121.21271537     1.57097727
 H     37  35  33     1.756124458574   119.40441522   181.22847972
 C     37  35  33     2.659431891366   121.10654591     1.14077074
 N     11  10   1     2.413272441651   125.38469609     1.91615721
 N     19  16  13     2.794921249153    34.60029069   347.61231918
 H     41  19  16     1.715281250644   107.37623584   237.44677584
 N     28  25  22     2.436054336995    33.16845322    80.39958413
 O      1   2   3     2.486184352982   119.03807541   358.05007697
 O     39  37  35     2.473100410125   120.26432148   180.64469601
 Fe    44   1   2     3.621366538313   131.85660056   172.81118405
 Cl    46  44   1     4.527964752960    89.00766644   269.05171732

---------------------
BASIS SET INFORMATION
---------------------
There are 6 groups of distinct atoms

 Group   1 Type C   : 11s6p2d1f contracted to 5s3p2d1f pattern {62111/411/11/1}
 Group   2 Type H   : 5s1p contracted to 3s1p pattern {311/1}
 Group   3 Type N   : 11s6p2d1f contracted to 5s3p2d1f pattern {62111/411/11/1}
 Group   4 Type O   : 11s6p2d1f contracted to 5s3p2d1f pattern {62111/411/11/1}
 Group   5 Type Fe  : 17s11p7d1f contracted to 6s4p4d1f pattern {842111/6311/4111/1}
 Group   6 Type Cl  : 14s9p3d1f contracted to 5s5p2d1f pattern {73211/51111/21/1}

Atom   0C    basis set group =>   1
Atom   1C    basis set group =>   1
Atom   2H    basis set group =>   2
Atom   3C    basis set group =>   1
Atom   4H    basis set group =>   2
Atom   5C    basis set group =>   1
Atom   6H    basis set group =>   2
Atom   7C    basis set group =>   1
Atom   8H    basis set group =>   2
Atom   9C    basis set group =>   1
Atom  10C    basis set group =>   1
Atom  11H    basis set group =>   2
Atom  12C    basis set group =>   1
Atom  13H    basis set group =>   2
Atom  14H    basis set group =>   2
Atom  15C    basis set group =>   1
Atom  16H    basis set group =>   2
Atom  17H    basis set group =>   2
Atom  18C    basis set group =>   1
Atom  19H    basis set group =>   2
Atom  20H    basis set group =>   2
Atom  21C    basis set group =>   1
Atom  22H    basis set group =>   2
Atom  23H    basis set group =>   2
Atom  24C    basis set group =>   1
Atom  25H    basis set group =>   2
Atom  26H    basis set group =>   2
Atom  27C    basis set group =>   1
Atom  28H    basis set group =>   2
Atom  29C    basis set group =>   1
Atom  30C    basis set group =>   1
Atom  31H    basis set group =>   2
Atom  32C    basis set group =>   1
Atom  33H    basis set group =>   2
Atom  34C    basis set group =>   1
Atom  35H    basis set group =>   2
Atom  36C    basis set group =>   1
Atom  37H    basis set group =>   2
Atom  38C    basis set group =>   1
Atom  39N    basis set group =>   3
Atom  40N    basis set group =>   3
Atom  41H    basis set group =>   2
Atom  42N    basis set group =>   3
Atom  43O    basis set group =>   4
Atom  44O    basis set group =>   4
Atom  45Fe   basis set group =>   5
Atom  46Cl   basis set group =>   6
---------------------------------
AUXILIARY/J BASIS SET INFORMATION
---------------------------------
There are 6 groups of distinct atoms

 Group   1 Type C   : 12s5p4d2f1g contracted to 6s4p3d1f1g pattern {711111/2111/211/2/1}
 Group   2 Type H   : 5s2p1d contracted to 3s1p1d pattern {311/2/1}
 Group   3 Type N   : 12s5p4d2f1g contracted to 6s4p3d1f1g pattern {711111/2111/211/2/1}
 Group   4 Type O   : 12s5p4d2f1g contracted to 6s4p3d1f1g pattern {711111/2111/211/2/1}
 Group   5 Type Fe  : 19s5p5d3f3g contracted to 8s5p5d2f3g pattern {121111111/11111/11111/21/111}
 Group   6 Type Cl  : 14s5p5d2f1g contracted to 8s4p3d1f1g pattern {71111111/2111/311/2/1}

Atom   0C    basis set group =>   1
Atom   1C    basis set group =>   1
Atom   2H    basis set group =>   2
Atom   3C    basis set group =>   1
Atom   4H    basis set group =>   2
Atom   5C    basis set group =>   1
Atom   6H    basis set group =>   2
Atom   7C    basis set group =>   1
Atom   8H    basis set group =>   2
Atom   9C    basis set group =>   1
Atom  10C    basis set group =>   1
Atom  11H    basis set group =>   2
Atom  12C    basis set group =>   1
Atom  13H    basis set group =>   2
Atom  14H    basis set group =>   2
Atom  15C    basis set group =>   1
Atom  16H    basis set group =>   2
Atom  17H    basis set group =>   2
Atom  18C    basis set group =>   1
Atom  19H    basis set group =>   2
Atom  20H    basis set group =>   2
Atom  21C    basis set group =>   1
Atom  22H    basis set group =>   2
Atom  23H    basis set group =>   2
Atom  24C    basis set group =>   1
Atom  25H    basis set group =>   2
Atom  26H    basis set group =>   2
Atom  27C    basis set group =>   1
Atom  28H    basis set group =>   2
Atom  29C    basis set group =>   1
Atom  30C    basis set group =>   1
Atom  31H    basis set group =>   2
Atom  32C    basis set group =>   1
Atom  33H    basis set group =>   2
Atom  34C    basis set group =>   1
Atom  35H    basis set group =>   2
Atom  36C    basis set group =>   1
Atom  37H    basis set group =>   2
Atom  38C    basis set group =>   1
Atom  39N    basis set group =>   3
Atom  40N    basis set group =>   3
Atom  41H    basis set group =>   2
Atom  42N    basis set group =>   3
Atom  43O    basis set group =>   4
Atom  44O    basis set group =>   4
Atom  45Fe   basis set group =>   5
Atom  46Cl   basis set group =>   6


           ************************************************************
           *        Program running with 16 parallel MPI-processes    *
           *              working on a common directory               *
           ************************************************************
------------------------------------------------------------------------------
                             ORCA STARTUP CALCULATIONS
                           -- RI-GTO INTEGRALS CHOSEN --
------------------------------------------------------------------------------
------------------------------------------------------------------------------
                   ___                                                        
                  /   \      - P O W E R E D   B Y -                         
                 /     \                                                     
                 |  |  |   _    _      __       _____    __    __             
                 |  |  |  | |  | |    /  \     |  _  \  |  |  /  |          
                  \  \/   | |  | |   /    \    | | | |  |  | /  /          
                 / \  \   | |__| |  /  /\  \   | |_| |  |  |/  /          
                |  |  |   |  __  | /  /__\  \  |    /   |      \           
                |  |  |   | |  | | |   __   |  |    \   |  |\   \          
                \     /   | |  | | |  |  |  |  | |\  \  |  | \   \       
                 \___/    |_|  |_| |__|  |__|  |_| \__\ |__|  \__/        
                                                                              
                      - O R C A' S   B I G   F R I E N D -                    
                                      &                                       
                       - I N T E G R A L  F E E D E R -                       
                                                                              
 v1 FN, 2020, v2 2021, v3 2022-2024                                           
------------------------------------------------------------------------------


----------------------
SHARK INTEGRAL PACKAGE
----------------------

Number of atoms                             ...     47
Number of basis functions                   ...    952
Number of shells                            ...    376
Maximum angular momentum                    ...      3
Integral batch strategy                     ... SHARK/LIBINT Hybrid
RI-J (if used) integral strategy            ... SPLIT-RIJ (Revised 2003 algorithm where possible)
Printlevel                                  ...      1
Contraction scheme used                     ... SEGMENTED contraction
Prescreening option                         ... SCHWARTZ
   Thresh                                   ... 2.500e-11
   Tcut                                     ... 2.500e-12
   Tpresel                                  ... 2.500e-12 
Coulomb Range Separation                    ... NOT USED
Exchange Range Separation                   ... NOT USED
Multipole approximations                    ... NOT USED
Finite Nucleus Model                        ... NOT USED
CABS basis                                  ... NOT available
Auxiliary Coulomb fitting basis             ... AVAILABLE
   # of basis functions in Aux-J            ...   1547
   # of shells in Aux-J                     ...    505
   Maximum angular momentum in Aux-J        ...      4
Auxiliary J/K fitting basis                 ... NOT available
Auxiliary Correlation fitting basis         ... NOT available
Auxiliary 'external' fitting basis          ... NOT available

Checking pre-screening integrals            ... done (  0.0 sec) Dimension = 376
Check shell pair data                       ... done (  0.0 sec)
Shell pair information
Shell pair cut-off parameter TPreSel        ...   2.5e-12
Total number of shell pairs                 ...     70876
Shell pairs after pre-screening             ...     49118
Total number of primitive shell pairs       ...    224801
Primitive shell pairs kept                  ...    100237
          la=0 lb=0:  12653 shell pairs
          la=1 lb=0:  14196 shell pairs
          la=1 lb=1:   4028 shell pairs
          la=2 lb=0:   7074 shell pairs
          la=2 lb=1:   4062 shell pairs
          la=2 lb=2:   1079 shell pairs
          la=3 lb=0:   3089 shell pairs
          la=3 lb=1:   1816 shell pairs
          la=3 lb=2:    918 shell pairs
          la=3 lb=3:    203 shell pairs

Calculating one electron integrals          ... done (  0.0 sec)
done (  0.2 sec)
Calculating Nuclear repulsion               ... done (  0.0 sec) ENN=   3227.914482630289 Eh

Diagonalization of the overlap matrix:
Smallest eigenvalue                        ... 6.387e-06
Time for diagonalization                   ...    0.123 sec
Threshold for overlap eigenvalues          ... 1.000e-07
Number of eigenvalues below threshold      ... 0
Time for construction of square roots      ...    0.091 sec
Total time needed                          ...    0.233 sec

-------------------
DFT GRID GENERATION
-------------------

General Integration Accuracy     IntAcc      ... 4.959
Radial Grid Type                 RadialGrid  ... OptM3 with GC (2021)
Angular Grid (max. ang.)         AngularGrid ... 6 (Lebedev-590)
Angular grid pruning method      GridPruning ... 4 (adaptive)
Weight generation scheme         WeightScheme... mBecke (2022)
Basis function cutoff            BFCut       ... 1.0000e-11
Integration weight cutoff        WCut        ... 1.0000e-14
Partially contracted basis set               ... off
Rotationally invariant grid construction     ... off
Angular grids for H and He will be reduced by one unit
Core-polarized basis detected: some atoms will have their core
                               angular grid increased.

Total number of grid points                  ...   558583
Total number of batches                      ...     8750
Average number of points per batch           ...       63
Average number of grid points per atom       ...    11885

--------------------
COSX GRID GENERATION
--------------------

GRIDX 1
-------
General Integration Accuracy     IntAcc      ... 4.020
Radial Grid Type                 RadialGrid  ... OptM3 with GC (2021)
Angular Grid (max. ang.)         AngularGrid ... 2 (Lebedev-110)
Angular grid pruning method      GridPruning ... 4 (adaptive)
Weight generation scheme         WeightScheme... mBecke (2022)
Basis function cutoff            BFCut       ... 1.0000e-11
Integration weight cutoff        WCut        ... 1.0000e-14
Partially contracted basis set               ... on
Rotationally invariant grid construction     ... off
Angular grids for H and He will be reduced by one unit
Core-polarized basis detected: some atoms will have their core
                               angular grid increased.

Total number of grid points                  ...    64088
Total number of batches                      ...      520
Average number of points per batch           ...      123
Average number of grid points per atom       ...     1364
UseSFitting                                  ... on

GRIDX 2
-------
General Integration Accuracy     IntAcc      ... 4.338
Radial Grid Type                 RadialGrid  ... OptM3 with GC (2021)
Angular Grid (max. ang.)         AngularGrid ... 3 (Lebedev-194)
Angular grid pruning method      GridPruning ... 4 (adaptive)
Weight generation scheme         WeightScheme... mBecke (2022)
Basis function cutoff            BFCut       ... 1.0000e-11
Integration weight cutoff        WCut        ... 1.0000e-14
Partially contracted basis set               ... on
Rotationally invariant grid construction     ... off
Angular grids for H and He will be reduced by one unit
Core-polarized basis detected: some atoms will have their core
                               angular grid increased.

Total number of grid points                  ...   134399
Total number of batches                      ...     1077
Average number of points per batch           ...      124
Average number of grid points per atom       ...     2860
UseSFitting                                  ... on

GRIDX 3
-------
General Integration Accuracy     IntAcc      ... 4.871
Radial Grid Type                 RadialGrid  ... OptM3 with GC (2021)
Angular Grid (max. ang.)         AngularGrid ... 4 (Lebedev-302)
Angular grid pruning method      GridPruning ... 4 (adaptive)
Weight generation scheme         WeightScheme... mBecke (2022)
Basis function cutoff            BFCut       ... 1.0000e-11
Integration weight cutoff        WCut        ... 1.0000e-14
Partially contracted basis set               ... on
Rotationally invariant grid construction     ... off
Angular grids for H and He will be reduced by one unit
Core-polarized basis detected: some atoms will have their core
                               angular grid increased.

Total number of grid points                  ...   251812
Total number of batches                      ...     1991
Average number of points per batch           ...      126
Average number of grid points per atom       ...     5358
UseSFitting                                  ... on
Initializing property integral containers    ... done (  0.0 sec)

SHARK setup successfully completed in   8.2 seconds

Maximum memory used throughout the entire STARTUP-calculation: 176.9 MB


           ************************************************************
           *        Program running with 16 parallel MPI-processes    *
           *              working on a common directory               *
           ************************************************************
-------------------------------------------------------------------------------
                                 ORCA GUESS
                   Start orbitals & Density for SCF / CASSCF
-------------------------------------------------------------------------------

------------
SCF SETTINGS
------------
Hamiltonian:
 Density Functional     Method          .... DFT(GTOs)
 Exchange Functional    Exchange        .... PBE
   PBE kappa parameter   XKappa         ....  0.804000
   PBE mue parameter    XMuePBE         ....  0.219520
 Correlation Functional Correlation     .... PBE
   PBE beta parameter  CBetaPBE         ....  0.066725
 LDA part of GGA corr.  LDAOpt          .... PW91-LDA
 Gradients option       PostSCFGGA      .... off
 Hybrid DFT is turned on
   Fraction HF Exchange ScalHFX         ....  0.250000
   Scaling of DF-GGA-X  ScalDFX         ....  0.750000
   Scaling of DF-GGA-C  ScalDFC         ....  1.000000
   Scaling of DF-LDA-C  ScalLDAC        ....  1.000000
   Perturbative correction              ....  0.000000
   NL short-range parameter             ....  6.900000
 RI-approximation to the Coulomb term is turned on
   Number of AuxJ basis functions       .... 1547
   RIJ-COSX (HFX calculated with COS-X)).... on


General Settings:
 Integral files         IntName         .... UHEZOX-S6
 Hartree-Fock type      HFTyp           .... UHF
 Total Charge           Charge          ....    0
 Multiplicity           Mult            ....    2
 Number of Electrons    NEL             ....  215
 Basis Dimension        Dim             ....  952
 Nuclear Repulsion      ENuc            ....   3227.9144826303 Eh

Convergence Acceleration:
 AO-DIIS                CNVDIIS         .... on
   Start iteration      DIISMaxIt       ....    12
   Startup error        DIISStart       ....  0.200000
   # of expansion vecs  DIISMaxEq       ....     5
   Bias factor          DIISBfac        ....   1.050
   Max. coefficient     DIISMaxC        ....  10.000
 MO-DIIS                CNVKDIIS        .... off
 Trust-Rad. Augm. Hess. CNVTRAH         .... auto
   Auto Start mean grad. ratio tolernc. ....  1.125000
   Auto Start start iteration           ....    50
   Auto Start num. interpolation iter.  ....    10
   Max. Number of Micro iterations      ....    24
   Max. Number of Macro iterations      .... Maxiter - #DIIS iter
   Number of Davidson start vectors     ....     2
   Converg. threshold    (grad. norm)   ....   1.000e-05
   Grad. Scal. Fac. for Micro threshold ....   0.100
   Minimum threshold for Micro iter.    ....   1.000e-02
   NR start threshold (gradient norm)   ....   1.000e-04
   Initial trust radius                 ....   0.400
   Minimum AH scaling param. (alpha)    ....   1.000
   Maximum AH scaling param. (alpha)    .... 1000.000
   Quad. conv. algorithm                .... NR
   White noise on init. David. guess    .... on
   Maximum white noise                  ....   0.010
   Pseudo random numbers                .... off
   Inactive MOs                         .... canonical
   Orbital update algorithm             .... Taylor
   Preconditioner                       .... Diag
   Full preconditioner red. dimension   ....   250
 SOSCF                  CNVSOSCF        .... on
   Start iteration      SOSCFMaxIt      ....   150
   Startup grad/error   SOSCFStart      ....  0.003300
   Hessian update       SOSCFHessUp     .... L-BFGS
 Level Shifting         CNVShift        .... on
   Level shift para.    LevelShift      ....    0.2500
   Turn off err/grad.   ShiftErr        ....    0.0010
 Zerner damping         CNVZerner       .... off
 Static damping         CNVDamp         .... on
   Fraction old density DampFac         ....    0.7000
   Max. Damping (<1)    DampMax         ....    0.9800
   Min. Damping (>=0)   DampMin         ....    0.0000
   Turn off err/grad.   DampErr         ....    0.1000

SCF Procedure:
 Maximum # iterations   MaxIter         ....   125
 SCF integral mode      SCFMode         .... Direct
   Integral package                     .... SHARK and LIBINT hybrid scheme
 Reset frequency        DirectResetFreq ....    20
 Integral Threshold     Thresh          ....  2.500e-11 Eh
 Primitive CutOff       TCut            ....  2.500e-12 Eh

Convergence Tolerance:
 Convergence Check Mode ConvCheckMode   .... Total+1el-Energy
 Convergence forced     ConvForced      .... 0
 Energy Change          TolE            ....  1.000e-08 Eh
 1-El. energy change                    ....  1.000e-05 Eh
 Orbital Gradient       TolG            ....  1.000e-05
 Orbital Rotation angle TolX            ....  1.000e-05
 DIIS Error             TolErr          ....  5.000e-07

------------------------------
INITIAL GUESS: MODEL POTENTIAL
------------------------------
Loading Hartree-Fock densities                     ... done
Calculating cut-offs                               ... done
Initializing the effective Hamiltonian             ... done
Setting up the integral package (SHARK)            ... done
done (   0.3 sec)
Making the grid                                    ... done (   0.3 sec)
Mapping shells                                     ... done
Starting the XC term evaluation                    ... done (   0.2 sec)
  promolecular density results
     # of electrons  =    215.002547204
     EX              =   -221.489185303
     EC              =     -7.689833840
     EX+EC           =   -229.179019143
Transforming the Hamiltonian                       ... done (   0.1 sec)
done (   0.1 sec)
Back transforming the eigenvectors                 ... done (   0.1 sec)
done
                      ------------------
                      INITIAL GUESS DONE (   1.2 sec)
                      ------------------
             **** ENERGY FILE WAS UPDATED (UHEZOX-S6.en.tmp) ****
Finished Guess after   1.6 sec
Maximum memory used throughout the entire GUESS-calculation: 90.9 MB


           ************************************************************
           *        Program running with 16 parallel MPI-processes    *
           *              working on a common directory               *
           ************************************************************

-------------------------------------------------------------------------------------------
                                      ORCA LEAN-SCF
                              memory conserving SCF solver
-------------------------------------------------------------------------------------------

----------------------------------------D-I-I-S--------------------------------------------
Iteration    Energy (Eh)           Delta-E    RMSDP     MaxDP     DIISErr   Damp  Time(sec)
-------------------------------------------------------------------------------------------
               ***  Starting incremental Fock matrix formation  ***
    1    -2773.0211294472410373     0.00e+00  6.81e-04  7.52e-02  1.95e-01  0.700  18.5
Warning: op=0 Small HOMO/LUMO gap (  -0.041) - skipping pre-diagonalization
         Will do a full diagonalization
    2    -2773.2992686457228046    -2.78e-01  6.71e-04  7.30e-02  8.64e-02  0.700  10.4
                               ***Turning on AO-DIIS***
    3    -2773.4707823790113252    -1.72e-01  2.35e-04  1.62e-02  4.60e-02  0.700   9.3
    4    -2773.5657126200349012    -9.49e-02  4.56e-04  5.59e-02  6.93e-02  0.000   8.7
    5    -2773.8226253507882575    -2.57e-01  1.53e-04  1.28e-02  4.49e-02  0.000   9.2
    6    -2773.8370361826318913    -1.44e-02  8.95e-05  6.71e-03  1.58e-02  0.000   8.3
                              *** Initializing SOSCF ***
---------------------------------------S-O-S-C-F--------------------------------------
Iteration    Energy (Eh)           Delta-E    RMSDP     MaxDP     MaxGrad    Time(sec)
--------------------------------------------------------------------------------------
    7    -2773.8402428895406047    -3.21e-03  3.84e-05  3.12e-03  3.26e-03     8.8
               *** Restarting incremental Fock matrix formation ***
    8    -2773.8411676186360637    -9.25e-04  5.75e-05  6.36e-03  4.41e-03    18.2
    9    -2773.8421171282725481    -9.50e-04  1.20e-04  1.58e-02  2.34e-03    13.2
   10    -2773.8415472425976986     5.70e-04  6.83e-05  8.50e-03  8.26e-03    14.0
   11    -2773.8427911692806447    -1.24e-03  7.09e-05  6.14e-03  3.00e-03    13.1
   12    -2773.8429143350258528    -1.23e-04  4.22e-05  5.82e-03  2.84e-03    13.6
   13    -2773.8436462072268114    -7.32e-04  7.39e-05  1.22e-02  1.36e-03    12.8
   14    -2773.8440588344592470    -4.13e-04  1.09e-04  1.70e-02  1.42e-03    13.2
   15    -2773.8445097990124850    -4.51e-04  4.88e-05  4.97e-03  1.45e-03    13.3
   16    -2773.8447679122846239    -2.58e-04  3.06e-05  3.07e-03  8.40e-04    12.9
   17    -2773.8448788531541140    -1.11e-04  2.18e-05  3.29e-03  6.59e-04    12.6
   18    -2773.8449559674036209    -7.71e-05  2.93e-05  5.19e-03  5.65e-04    12.0
   19    -2773.8450098425446413    -5.39e-05  2.16e-05  3.12e-03  5.61e-04    12.2
   20    -2773.8450653507998140    -5.55e-05  2.89e-05  4.53e-03  4.33e-04    11.8
   21    -2773.8451113624723803    -4.60e-05  2.52e-05  4.19e-03  5.21e-04    12.0
   22    -2773.8451612530052444    -4.99e-05  4.51e-05  7.09e-03  4.85e-04    11.7
   23    -2773.8452213221517013    -6.01e-05  2.31e-05  3.66e-03  4.07e-04    12.4
   24    -2773.8452458170058890    -2.45e-05  1.12e-05  1.19e-03  4.62e-04    11.9
   25    -2773.8452608504148884    -1.50e-05  8.45e-06  1.18e-03  2.51e-04    11.1
   26    -2773.8452675217358774    -6.67e-06  6.95e-06  1.13e-03  2.03e-04    10.9
   27    -2773.8452713995184240    -3.88e-06  9.60e-06  1.95e-03  1.63e-04    10.3
               *** Restarting incremental Fock matrix formation ***
   28    -2773.8452764394423866    -5.04e-06  1.46e-05  2.43e-03  1.46e-04    18.2
   29    -2773.8452803605341614    -3.92e-06  1.33e-05  2.24e-03  1.37e-04    10.9
   30    -2773.8452840472746175    -3.69e-06  8.72e-06  8.73e-04  9.13e-05    10.7
   31    -2773.8452854808165284    -1.43e-06  7.78e-06  7.16e-04  9.06e-05    10.2
   32    -2773.8452865232047770    -1.04e-06  3.39e-06  4.07e-04  5.64e-05     9.7
   33    -2773.8452869359362012    -4.13e-07  4.19e-06  5.90e-04  4.45e-05     9.2
   34    -2773.8452872477182609    -3.12e-07  3.98e-06  4.64e-04  4.06e-05     9.3
   35    -2773.8452874366084870    -1.89e-07  3.91e-06  4.71e-04  3.18e-05     9.0
   36    -2773.8452876225155705    -1.86e-07  3.89e-06  6.49e-04  2.57e-05     8.5
   37    -2773.8452877982745122    -1.76e-07  5.63e-06  6.87e-04  2.38e-05     9.3
   38    -2773.8452878897614937    -9.15e-08  4.76e-06  7.91e-04  1.98e-05     8.6
   39    -2773.8452879535789179    -6.38e-08  4.64e-06  4.71e-04  1.89e-05     8.5
   40    -2773.8452880404192911    -8.68e-08  3.20e-06  4.61e-04  2.33e-05     9.3
   41    -2773.8452881634948426    -1.23e-07  6.36e-06  7.35e-04  3.02e-05     8.9
   42    -2773.8452883862901217    -2.23e-07  9.83e-06  1.29e-03  3.36e-05     9.6
   43    -2773.8452887573466796    -3.71e-07  8.45e-06  1.42e-03  3.58e-05    10.2
   44    -2773.8452891447604998    -3.87e-07  9.80e-06  1.40e-03  5.63e-05    10.2
   45    -2773.8452895992495542    -4.54e-07  1.43e-05  2.26e-03  6.24e-05    10.3
   46    -2773.8452904488240165    -8.50e-07  2.86e-05  4.87e-03  7.24e-05    10.8
   47    -2773.8452923212553287    -1.87e-06  6.06e-05  1.06e-02  1.41e-04    11.6
               *** Restarting incremental Fock matrix formation ***
   48    -2773.8452957149820577    -3.39e-06  2.48e-05  4.29e-03  2.88e-04    18.4
   49    -2773.8453040155382041    -8.30e-06  1.46e-04  2.56e-02  2.80e-04    11.6
   50    -2773.8453177683732065    -1.38e-05  8.21e-05  1.85e-02  5.54e-04    13.6

       ******************************************************************************
       ***                                                                        ***
       ***                               Auto-TRAH                                ***
       ***                               ---------                                ***
       *** the maximum gradient error decreased on average only by a factor   0.7 ***
       *** during the last  10 iterations                                         ***
       ***                                                                        ***
       ***               Leaving SCF to start the TRAH-SCF procedure              ***
       ***                                                                        ***
       ******************************************************************************

 --------------------------------------------------------------------------------------------
   Iter.        energy            ||Error||_2        Shift      TRadius  Mac/Mic        Rej.
 --------------------------------------------------------------------------------------------
    0      -2773.845364870917     2.012719e-03                     0.400 (TRAH MAcro)   No
    0     dE    -2.478935e-06     1.761354e-03    -2.4789e-06      0.002 (TRAH MIcro)
    0     dE    -5.967258e-06     1.690654e-03    -5.9671e-06      0.006 (TRAH MIcro)
    0     dE    -8.683411e-06     1.055234e-03    -8.6826e-06      0.009 (TRAH MIcro)
    0     dE    -9.383842e-06     5.978524e-04    -9.3828e-06      0.011 (TRAH MIcro)
    0     dE    -9.883940e-06     6.445687e-04    -9.8825e-06      0.012 (TRAH MIcro)
    0     dE    -1.028786e-05     6.294505e-04    -1.0286e-05      0.013 (TRAH MIcro)
    0     dE    -1.085987e-05     7.835653e-04    -1.0857e-05      0.015 (TRAH MIcro)
    0     dE    -1.174499e-05     1.049556e-03    -1.1741e-05      0.020 (TRAH MIcro)
    0     dE    -1.284352e-05     9.243263e-04    -1.2835e-05      0.026 (TRAH MIcro)
    0     dE    -1.375618e-05     9.288264e-04    -1.3742e-05      0.032 (TRAH MIcro)
    0     dE    -1.467906e-05     1.017354e-03    -1.4658e-05      0.038 (TRAH MIcro)
    0     dE    -1.597997e-05     1.081205e-03    -1.5944e-05      0.048 (TRAH MIcro)
    0     dE    -1.727852e-05     1.159951e-03    -1.7221e-05      0.058 (TRAH MIcro)
    0     dE    -1.896004e-05     1.178057e-03    -1.8865e-05      0.071 (TRAH MIcro)
    0     dE    -2.030664e-05     1.102970e-03    -2.0172e-05      0.082 (TRAH MIcro)
    0     dE    -2.120051e-05     6.905383e-04    -2.1034e-05      0.089 (TRAH MIcro)
    0     dE    -2.153597e-05     4.691007e-04    -2.1356e-05      0.092 (TRAH MIcro)
    0     dE    -2.171695e-05     3.518914e-04    -2.1530e-05      0.093 (TRAH MIcro)
    0     dE    -2.185844e-05     3.237853e-04    -2.1666e-05      0.094 (TRAH MIcro)
    0     dE    -2.201080e-05     4.081754e-04    -2.1811e-05      0.096 (TRAH MIcro)
    0     dE    -2.218325e-05     3.642257e-04    -2.1976e-05      0.097 (TRAH MIcro)
    0     dE    -2.229341e-05     2.648147e-04    -2.2081e-05      0.098 (TRAH MIcro)
    0     dE    -2.237229e-05     2.369984e-04    -2.2156e-05      0.099 (TRAH MIcro)
    1      -2773.845371800966     9.387928e-04                     0.400 (TRAH MAcro)   No
    1     dE    -3.568483e-07     6.181485e-04    -3.5685e-07      0.001 (TRAH MIcro)
    1     dE    -1.423641e-06     1.151752e-03    -1.4236e-06      0.004 (TRAH MIcro)
    1     dE    -2.560372e-06     1.223783e-03    -2.5602e-06      0.008 (TRAH MIcro)
    1     dE    -4.117424e-06     1.030173e-03    -4.1166e-06      0.014 (TRAH MIcro)
    1     dE    -4.975774e-06     8.228668e-04    -4.9741e-06      0.018 (TRAH MIcro)
    1     dE    -5.573419e-06     6.684444e-04    -5.5710e-06      0.021 (TRAH MIcro)
    1     dE    -6.249423e-06     9.822974e-04    -6.2457e-06      0.024 (TRAH MIcro)
    1     dE    -7.138718e-06     1.042154e-03    -7.1326e-06      0.029 (TRAH MIcro)
    1     dE    -8.008865e-06     7.104072e-04    -7.9993e-06      0.035 (TRAH MIcro)
    1     dE    -8.444687e-06     5.940042e-04    -8.4329e-06      0.037 (TRAH MIcro)
    1     dE    -8.726324e-06     3.654075e-04    -8.7129e-06      0.039 (TRAH MIcro)
    1     dE    -8.824559e-06     2.191385e-04    -8.8106e-06      0.040 (TRAH MIcro)
    1     dE    -8.866355e-06     1.567076e-04    -8.8521e-06      0.040 (TRAH MIcro)
    1     dE    -8.888689e-06     1.283892e-04    -8.8743e-06      0.040 (TRAH MIcro)
    1     dE    -8.904365e-06     1.192482e-04    -8.8898e-06      0.040 (TRAH MIcro)
    1     dE    -8.921006e-06     1.060052e-04    -8.9064e-06      0.041 (TRAH MIcro)
    1     dE    -8.936187e-06     1.323386e-04    -8.9214e-06      0.041 (TRAH MIcro)
    1     dE    -8.957224e-06     1.465081e-04    -8.9423e-06      0.041 (TRAH MIcro)
    1     dE    -8.974446e-06     1.098422e-04    -8.9594e-06      0.041 (TRAH MIcro)
    1     dE    -8.984548e-06     7.920597e-05    -8.9694e-06      0.041 (TRAH MIcro)
    2      -2773.845381161603     1.893613e-04                     0.480 (TRAH MAcro)   No
    2     dE    -1.308840e-08     1.264441e-04    -1.3089e-08      0.000 (TRAH MIcro)
    2     dE    -3.434932e-08     1.442955e-04    -3.4349e-08      0.000 (TRAH MIcro)
    2     dE    -5.106332e-08     1.472266e-04    -5.1063e-08      0.001 (TRAH MIcro)
    2     dE    -7.256670e-08     1.208682e-04    -7.2567e-08      0.001 (TRAH MIcro)
[...]
106:   1471.96   0.001603    8.10  0.000340  (-0.016560  0.002625 -0.007659)
107:   1478.99   0.001897    9.59  0.000400  ( 0.009872 -0.009400  0.014642)
108:   1486.43   0.001404    7.09  0.000295  (-0.007652  0.015356  0.000605)
109:   1490.84   0.005770   29.16  0.001208  ( 0.028787 -0.004074  0.019040)
110:   1496.07   0.002399   12.12  0.000500  ( 0.006743  0.019823  0.007875)
111:   1497.02   0.049003  247.64  0.010215  ( 0.043470 -0.088187  0.023415)
112:   1511.53   0.009596   48.50  0.001981  (-0.002788 -0.042961  0.011307)
113:   1512.36   0.003731   18.85  0.000770  (-0.000814 -0.012870 -0.024566)
114:   1585.60   0.019484   98.47  0.003835  ( 0.008793  0.010994  0.060304)
115:   1599.99   0.013349   67.46  0.002604  ( 0.043212  0.026162 -0.007206)
116:   1667.95   0.017916   90.54  0.003352  ( 0.056432 -0.012531 -0.003217)
117:   1674.97   0.023666  119.60  0.004409  ( 0.003957  0.044580  0.049053)
118:   1709.86   0.054743  276.65  0.009991  ( 0.090765 -0.038629 -0.016140)
119:   1719.30   0.086261  435.93  0.015657  ( 0.049392  0.073983  0.087999)
120:   3021.22   0.008547   43.19  0.000883  ( 0.013349  0.010286  0.024471)
121:   3025.39   0.004566   23.08  0.000471  (-0.006881 -0.007228  0.019271)
122:   3034.45   0.005629   28.45  0.000579  (-0.005821 -0.014721  0.018118)
123:   3040.52   0.011194   56.57  0.001149  (-0.000162  0.033096  0.007314)
124:   3046.67   0.015009   75.85  0.001537  (-0.009406 -0.005244 -0.037701)
125:   3077.07   0.007777   39.30  0.000789  ( 0.000029 -0.026679  0.008771)
126:   3079.90   0.003714   18.77  0.000376  (-0.010870  0.010288 -0.012341)
127:   3089.31   0.005384   27.21  0.000544  (-0.014631 -0.018118 -0.001244)
128:   3089.83   0.005956   30.10  0.000602  ( 0.007524 -0.017544  0.015400)
129:   3118.52   0.000062    0.31  0.000006  ( 0.001691 -0.000778  0.001648)
130:   3122.99   0.001146    5.79  0.000115  ( 0.010107  0.003024  0.001794)
131:   3125.96   0.001105    5.58  0.000110  (-0.008487  0.002024  0.005847)
132:   3170.67   0.002016   10.19  0.000198  ( 0.003091 -0.012839  0.004902)
133:   3174.12   0.001463    7.39  0.000144  ( 0.003036 -0.009367  0.006843)
134:   3182.67   0.002085   10.54  0.000204  ( 0.001905  0.000430  0.014166)
135:   3184.19   0.001504    7.60  0.000147  (-0.010334 -0.005832  0.002567)
136:   3208.03   0.001827    9.23  0.000178  ( 0.001463  0.009084 -0.009647)
137:   3211.94   0.001956    9.88  0.000190  (-0.002596  0.012743 -0.004571)
138:   3216.89   0.002896   14.64  0.000281  (-0.015815  0.002150 -0.005120)
139:   3217.73   0.002823   14.27  0.000274  (-0.000380 -0.011841 -0.011551)
140:   3478.12   0.001692    8.55  0.000152  (-0.010971  0.003852  0.004078)

* The epsilon (eps) is given for a Dirac delta lineshape.
** The dipole moment derivative (T) already includes vibrational overlap.

The first frequency considered to be a vibration is 6
The total number of vibrations considered is 135


--------------------------
THERMOCHEMISTRY AT 298.15K
--------------------------

Temperature         ...   298.15 K
Pressure            ...     1.00 atm
Total Mass          ...   414.70 AMU
Quasi RRHO          ...     True
Cut-Off Frequency   ...     1.00 cm^-1

Throughout the following assumptions are being made:
  (1) The electronic state is orbitally nondegenerate
      but the spin degeneracy is treated
  (2) There are no thermally accessible electronically excited states
  (3) Hindered rotations indicated by low frequency modes are not
      treated as such but are treated as vibrations and this may
      cause some error
  (4) All equations used are the standard statistical mechanics
      equations for an ideal gas
  (5) All vibrations are strictly harmonic

freq.      28.21  E(vib)   ...       0.55 
freq.      59.61  E(vib)   ...       0.51 
freq.      74.59  E(vib)   ...       0.49 
freq.      77.85  E(vib)   ...       0.49 
freq.     100.45  E(vib)   ...       0.46 
freq.     117.93  E(vib)   ...       0.44 
freq.     143.44  E(vib)   ...       0.41 
freq.     157.75  E(vib)   ...       0.40 
freq.     166.24  E(vib)   ...       0.39 
freq.     172.74  E(vib)   ...       0.38 
freq.     203.24  E(vib)   ...       0.35 
freq.     222.99  E(vib)   ...       0.33 
freq.     226.04  E(vib)   ...       0.33 
freq.     231.14  E(vib)   ...       0.32 
freq.     257.42  E(vib)   ...       0.30 
freq.     269.14  E(vib)   ...       0.29 
freq.     291.19  E(vib)   ...       0.27 
freq.     303.76  E(vib)   ...       0.26 
freq.     328.71  E(vib)   ...       0.24 
freq.     336.99  E(vib)   ...       0.24 
freq.     349.14  E(vib)   ...       0.23 
freq.     357.86  E(vib)   ...       0.22 
freq.     362.29  E(vib)   ...       0.22 
freq.     390.19  E(vib)   ...       0.20 
freq.     410.43  E(vib)   ...       0.19 
freq.     419.48  E(vib)   ...       0.18 
freq.     427.65  E(vib)   ...       0.18 
freq.     439.24  E(vib)   ...       0.17 
freq.     468.28  E(vib)   ...       0.16 
freq.     473.65  E(vib)   ...       0.15 
freq.     480.80  E(vib)   ...       0.15 
freq.     493.35  E(vib)   ...       0.14 
freq.     505.02  E(vib)   ...       0.14 
freq.     551.86  E(vib)   ...       0.12 
freq.     558.76  E(vib)   ...       0.12 
freq.     561.10  E(vib)   ...       0.11 
freq.     569.64  E(vib)   ...       0.11 
freq.     594.08  E(vib)   ...       0.10 
freq.     616.97  E(vib)   ...       0.09 
freq.     622.09  E(vib)   ...       0.09 
freq.     642.07  E(vib)   ...       0.09 
freq.     658.62  E(vib)   ...       0.08 
freq.     660.54  E(vib)   ...       0.08 
freq.     755.11  E(vib)   ...       0.06 
freq.     756.99  E(vib)   ...       0.06 
freq.     764.75  E(vib)   ...       0.06 
freq.     773.32  E(vib)   ...       0.05 
freq.     815.56  E(vib)   ...       0.05 
freq.     819.49  E(vib)   ...       0.05 
freq.     842.96  E(vib)   ...       0.04 
freq.     871.98  E(vib)   ...       0.04 
freq.     875.94  E(vib)   ...       0.04 
freq.     887.45  E(vib)   ...       0.04 
freq.     898.28  E(vib)   ...       0.03 
freq.     914.14  E(vib)   ...       0.03 
freq.     921.08  E(vib)   ...       0.03 
freq.     926.56  E(vib)   ...       0.03 
freq.     936.06  E(vib)   ...       0.03 
freq.     939.36  E(vib)   ...       0.03 
freq.     969.75  E(vib)   ...       0.03 
freq.     970.71  E(vib)   ...       0.03 
freq.     974.11  E(vib)   ...       0.03 
freq.     983.94  E(vib)   ...       0.02 
freq.     991.65  E(vib)   ...       0.02 
freq.    1008.58  E(vib)   ...       0.02 
freq.    1019.70  E(vib)   ...       0.02 
freq.    1058.97  E(vib)   ...       0.02 
freq.    1061.49  E(vib)   ...       0.02 
freq.    1075.29  E(vib)   ...       0.02 
freq.    1097.38  E(vib)   ...       0.02 
freq.    1118.38  E(vib)   ...       0.01 
freq.    1127.27  E(vib)   ...       0.01 
freq.    1138.04  E(vib)   ...       0.01 
freq.    1150.90  E(vib)   ...       0.01 
freq.    1161.70  E(vib)   ...       0.01 
freq.    1164.72  E(vib)   ...       0.01 
freq.    1170.50  E(vib)   ...       0.01 
freq.    1172.99  E(vib)   ...       0.01 
freq.    1210.61  E(vib)   ...       0.01 
freq.    1241.98  E(vib)   ...       0.01 
freq.    1251.63  E(vib)   ...       0.01 
freq.    1257.45  E(vib)   ...       0.01 
freq.    1274.97  E(vib)   ...       0.01 
freq.    1282.11  E(vib)   ...       0.01 
freq.    1283.30  E(vib)   ...       0.01 
freq.    1291.62  E(vib)   ...       0.01 
freq.    1338.72  E(vib)   ...       0.01 
freq.    1354.37  E(vib)   ...       0.01 
freq.    1357.51  E(vib)   ...       0.01 
freq.    1373.69  E(vib)   ...       0.01 
freq.    1374.95  E(vib)   ...       0.01 
freq.    1379.75  E(vib)   ...       0.01 
freq.    1390.53  E(vib)   ...       0.00 
freq.    1391.91  E(vib)   ...       0.00 
freq.    1409.66  E(vib)   ...       0.00 
freq.    1414.98  E(vib)   ...       0.00 
freq.    1427.26  E(vib)   ...       0.00 
freq.    1438.16  E(vib)   ...       0.00 
freq.    1459.65  E(vib)   ...       0.00 
freq.    1470.97  E(vib)   ...       0.00 
freq.    1471.96  E(vib)   ...       0.00 
freq.    1478.99  E(vib)   ...       0.00 
freq.    1486.43  E(vib)   ...       0.00 
freq.    1490.84  E(vib)   ...       0.00 
freq.    1496.07  E(vib)   ...       0.00 
freq.    1497.02  E(vib)   ...       0.00 
freq.    1511.53  E(vib)   ...       0.00 
freq.    1512.36  E(vib)   ...       0.00 
freq.    1585.60  E(vib)   ...       0.00 
freq.    1599.99  E(vib)   ...       0.00 
freq.    1667.95  E(vib)   ...       0.00 
freq.    1674.97  E(vib)   ...       0.00 
freq.    1709.86  E(vib)   ...       0.00 
freq.    1719.30  E(vib)   ...       0.00 
freq.    3021.22  E(vib)   ...       0.00 
freq.    3025.39  E(vib)   ...       0.00 
freq.    3034.45  E(vib)   ...       0.00 
freq.    3040.52  E(vib)   ...       0.00 
freq.    3046.67  E(vib)   ...       0.00 
freq.    3077.07  E(vib)   ...       0.00 
freq.    3079.90  E(vib)   ...       0.00 
freq.    3089.31  E(vib)   ...       0.00 
freq.    3089.83  E(vib)   ...       0.00 
freq.    3118.52  E(vib)   ...       0.00 
freq.    3122.99  E(vib)   ...       0.00 
freq.    3125.96  E(vib)   ...       0.00 
freq.    3170.67  E(vib)   ...       0.00 
freq.    3174.12  E(vib)   ...       0.00 
freq.    3182.67  E(vib)   ...       0.00 
freq.    3184.19  E(vib)   ...       0.00 
freq.    3208.03  E(vib)   ...       0.00 
freq.    3211.94  E(vib)   ...       0.00 
freq.    3216.89  E(vib)   ...       0.00 
freq.    3217.73  E(vib)   ...       0.00 
freq.    3478.12  E(vib)   ...       0.00 

------------
INNER ENERGY
------------

The inner energy is: U= E(el) + E(ZPE) + E(vib) + E(rot) + E(trans)
    E(el)   - is the total energy from the electronic structure calculation
              = E(kin-el) + E(nuc-el) + E(el-el) + E(nuc-nuc)
    E(ZPE)  - the the zero temperature vibrational energy from the frequency calculation
    E(vib)  - the the finite temperature correction to E(ZPE) due to population
              of excited vibrational states
    E(rot)  - is the rotational thermal energy
    E(trans)- is the translational thermal energy

Summary of contributions to the inner energy U:
Electronic energy                ...  -2774.22606601 Eh
Zero point energy                ...      0.38043679 Eh     238.73 kcal/mol
Thermal vibrational correction   ...      0.01902194 Eh      11.94 kcal/mol
Thermal rotational correction    ...      0.00141627 Eh       0.89 kcal/mol
Thermal translational correction ...      0.00141627 Eh       0.89 kcal/mol
-----------------------------------------------------------------------
Total thermal energy                  -2773.82377473 Eh


Summary of corrections to the electronic energy:
(perhaps to be used in another calculation)
Total thermal correction                  0.02185448 Eh      13.71 kcal/mol
Non-thermal (ZPE) correction              0.38043679 Eh     238.73 kcal/mol
-----------------------------------------------------------------------
Total correction                          0.40229128 Eh     252.44 kcal/mol


--------
ENTHALPY
--------

The enthalpy is H = U + kB*T
                kB is Boltzmann's constant
Total thermal energy              ...  -2773.82377473 Eh 
Thermal Enthalpy correction       ...      0.00094421 Eh       0.59 kcal/mol
-----------------------------------------------------------------------
Total Enthalpy                    ...  -2773.82283052 Eh


Note: Only C1 symmetry has been detected, increase convergence thresholds 
      if your molecule has a higher symmetry. Symmetry factor of 1.0 is   
      used for the rotational entropy correction. 
 

Note: Rotational entropy computed according to Herzberg 
Infrared and Raman Spectra, Chapter V,1, Van Nostrand Reinhold, 1945 
Point Group:  C1, Symmetry Number:   1  
Rotational constants in cm-1:     0.007573     0.006908     0.004790 

Vibrational entropy computed according to the QRRHO of S. Grimme
Chem.Eur.J. 2012 18 9955 using a reference frequency of 100.0 cm-1


-------
ENTROPY
-------

The entropy contributions are T*S = T*(S(el)+S(vib)+S(rot)+S(trans))
     S(el)   - electronic entropy
     S(vib)  - vibrational entropy
     S(rot)  - rotational entropy
     S(trans)- translational entropy
The entropies will be listed as multiplied by the temperature to get
units of energy

Electronic entropy                ...      0.00065446 Eh      0.41 kcal/mol
Vibrational entropy               ...      0.03219613 Eh     20.20 kcal/mol
Rotational entropy                ...      0.01668634 Eh     10.47 kcal/mol
Translational entropy             ...      0.02088572 Eh     13.11 kcal/mol
-----------------------------------------------------------------------
Final entropy term                ...      0.07042265 Eh     44.19 kcal/mol

In case the symmetry of your molecule has not been determined correctly
or in case you have a reason to use a different symmetry number we print 
out the resulting rotational entropy values for sn=1,12:

 non-linear molecules -----------------------------------
|  sn= 1 | S(rot)=       0.01668634 Eh     10.47 kcal/mol|
|  sn= 2 | S(rot)=       0.01603189 Eh     10.06 kcal/mol|
|  sn= 3 | S(rot)=       0.01564906 Eh      9.82 kcal/mol|
|  sn= 4 | S(rot)=       0.01537743 Eh      9.65 kcal/mol|
|  sn= 5 | S(rot)=       0.01516674 Eh      9.52 kcal/mol|
|  sn= 6 | S(rot)=       0.01499460 Eh      9.41 kcal/mol|
|  sn= 7 | S(rot)=       0.01484905 Eh      9.32 kcal/mol|
|  sn= 8 | S(rot)=       0.01472298 Eh      9.24 kcal/mol|
|  sn= 9 | S(rot)=       0.01461177 Eh      9.17 kcal/mol|
|  sn=10 | S(rot)=       0.01451229 Eh      9.11 kcal/mol|
|  sn=11 | S(rot)=       0.01442230 Eh      9.05 kcal/mol|
|  sn=12 | S(rot)=       0.01434014 Eh      9.00 kcal/mol|
 linear molecules ---------------------------------------
|  Dinfh | S(rot)=       0.01036893 Eh      6.51 kcal/mol|
|  Cinfv | S(rot)=       0.01102339 Eh      6.92 kcal/mol|
 --------------------------------------------------------


-------------------
GIBBS FREE ENERGY
-------------------

The Gibbs free energy is G = H - T*S

Total enthalpy                    ...  -2773.82283052 Eh 
Total entropy correction          ...     -0.07042265 Eh    -44.19 kcal/mol
-----------------------------------------------------------------------
Final Gibbs free energy         ...  -2773.89325317 Eh

For completeness - the Gibbs free energy minus the electronic energy
G-E(el)                           ...      0.33281283 Eh    208.84 kcal/mol


Maximum memory used throughout the entire PROP-calculation: 1259.0 MB

--------------------------------
SUGGESTED CITATIONS FOR THIS RUN
--------------------------------

Below you find a list of papers that are relevant to this ORCA run
We neither can nor want to force you to cite these papers, but we appreciate if you do
You receive ORCA, which is the product of decades of hard work by many enthusiastic individuals, for free
The only thing we kindly ask in return is that you cite our papers,
We deeply appreciate it, if you show your appreciation for ORCA by not just citing the generic ORCA reference.

Please note that relegating all ORCA citations to the supporting information does *not* help us.
SI sections are not indexed - citations you put there will not count into any citation statistics
But we need these citations in order to attract the funding resources that allow us to do what we are doing

Therefore, if you are a happy ORCA user, please consider citing a few of the papers listed below in the main body of your paper

In addition to the list printed below, the program has created the file UHEZOX-S6.bibtex that contains the list in bibtex format
You can import this file easily into all common literature databanks and citation aid programs


List of essential papers. We consider these as the minimum necessary citations

  1. Neese,F.
     Software update: the ORCA program system, version 5.0
     WIRES Comput. Molec. Sci., 2022 12(1)e1606
     doi.org/10.1002/wcms.1606

List of papers to cite with high priority. The work reported in these papers was absolutely
necessary for this run to complete.
Our perspective: the developers of density functionals and basis sets usually get cited in chemistry papers
Good! But without the algorithms to do something with them, the functionals or basis sets would not do anything.
Hence, in our opinion, the algorithm design and method developments papers are equally worthy of getting cited

  1. Neese,F.
     An improvement of the resolution of the identity approximation for the formation of the Coulomb matrix
     J. Comp. Chem., 2003 24(14)1740-1747
     doi.org/10.1002/jcc.10318
  2. Neese,F.; Wennmohs,F.; Hansen,A.; Becker,U.
     Efficient, approximate and parallel Hartree-Fock and hybrid DFT calculations. A 'chain-of-spheres' algorithm for the Hartree-Fock exchange
     Chem. Phys., 2009 356(1-3)98-109
     doi.org/10.1016/j.chemphys.2008.10.036
  3. Bykov,D.; Petrenko,T.; Izsak,R.; Kossmann,S.; Becker,U.; Valeev,E.; Neese,F.
     Efficient implementation of the analytic second derivatives of Hartree-Fock and hybrid DFT energies: a detailed analysis of different approximations
     Molec. Phys., 2015 113 1961-1977
     doi.org/10.1080/00268976.2015.1025114
  4. Helmich-Paris,B.; de Souza,B.; Neese,F.; Izsák,R.
     An improved chain of spheres for exchange algorithm
     J. Chem. Phys., 2021 155 104109
     doi.org/doi: 10.1063/5.0058766.
  5. Helmich-Paris,B.
     A trust-region augmented Hessian implementation for restricted and unrestricted Hartree–Fock and Kohn–Sham methods
     J. Chem. Phys., 2021 154 164104
     doi.org/10.1063/5.0040798
  6. Neese,F.
     The SHARK Integral Generation and Digestion System
     J. Comp. Chem., 2022  1-16
     doi.org/10.1002/jcc.26942

List of suggested additional citations. These are papers that are important in the 'surrounding' of 
of this run, or papers that preceded the highly important papers. If you like your results we are grateful for a citation.

  1. Izsak,R.; Neese,F.
     An overlap fitted chain of spheres exchange method
     J. Chem. Phys., 2011 135 144105
     doi.org/10.1063/1.3646921
  2. Izsak,R.; Hansen,A.; Neese,F.
     The resolution of identity and chain of spheres approximations for the LPNO-CCSD singles Fock term
     Molec. Phys., 2012 110 2413-2417
     doi.org/10.1080/00268976.2012.687466
  3. Neese,F.
     The ORCA program system
     WIRES Comput. Molec. Sci., 2012 2(1)73-78
     doi.org/10.1002/wcms.81
  4. Izsak,R.; Neese,F.; Klopper,W.
     Robust fitting techniques in the chain of spheres approximation to the Fock exchange: The role of the complementary space
     J. Chem. Phys., 2013 139 
     doi.org/10.1063/1.4819264
  5. Neese,F.
     Software update: the ORCA program system, version 4.0
     WIRES Comput. Molec. Sci., 2018 8(1)1-6
     doi.org/10.1002/wcms.1327
  6. Neese,F.; Wennmohs,F.; Becker,U.; Riplinger,C.
     The ORCA quantum chemistry program package
     J. Chem. Phys., 2020 152 Art. No. L224108
     doi.org/10.1063/5.0004608

List of optional additional citations

  1. Neese,F.
     Approximate second-order SCF convergence for spin unrestricted wavefunctions
     Chem. Phys. Lett., 2000 325(1-3)93-98
     doi.org/10.1016/s0009-2614(00)00662-x

Timings for individual modules:

Sum of individual times          ...    22735.437 sec (= 378.924 min)
Startup calculation              ...      190.988 sec (=   3.183 min)   0.8 %
SCF iterations                   ...     6567.717 sec (= 109.462 min)  28.9 %
Property integrals               ...     3281.252 sec (=  54.688 min)  14.4 %
SCF Response                     ...    10605.147 sec (= 176.752 min)  46.6 %
Property calculations            ...     1118.135 sec (=  18.636 min)   4.9 %
SCF Gradient evaluation          ...      971.374 sec (=  16.190 min)   4.3 %
Geometry relaxation              ...        0.824 sec (=   0.014 min)   0.0 %
                             ****ORCA TERMINATED NORMALLY****
TOTAL RUN TIME: 0 days 6 hours 19 minutes 37 seconds 491 msec
