
                                 *****************
                                 * O   R   C   A *
                                 *****************

                                            #,                                       
                                            ###                                      
                                            ####                                     
                                            #####                                    
                                            ######                                   
                                           ########,                                 
                                     ,,################,,,,,                         
                               ,,#################################,,                 
                          ,,##########################################,,             
                       ,#########################################, ''#####,          
                    ,#############################################,,   '####,        
                  ,##################################################,,,,####,       
                ,###########''''           ''''###############################       
              ,#####''   ,,,,##########,,,,          '''####'''          '####       
            ,##' ,,,,###########################,,,                        '##       
           ' ,,###''''                  '''############,,,                           
         ,,##''                                '''############,,,,        ,,,,,,###''
      ,#''                                            '''#######################'''  
     '                                                          ''''####''''         
             ,#######,   #######,   ,#######,      ##                                
            ,#'     '#,  ##    ##  ,#'     '#,    #''#        ,####,   ,####,        
            ##       ##  ##   ,#'  ##            #'  '#       #'       #'  '#        
            ##       ##  #######   ##           ,######,      #####,   #    #        
            '#,     ,#'  ##    ##  '#,     ,#' ,#      #,     #,   #   #,  ,#        
             '#######'   ##     ##  '#######'  #'      '#     '####' # '####'        



                #########################################################
                #                        -***-                          #
                #          Department of theory and spectroscopy        #
                #                                                       #
                #                      Frank Neese                      #
                #                                                       #
                #     Directorship, Architecture, Infrastructure        #
                #                    SHARK, DRIVERS                     #
                #        Core code/Algorithms in most modules           #
                #                                                       #
                #        Max Planck Institute fuer Kohlenforschung      #
                #                Kaiser Wilhelm Platz 1                 #
                #                 D-45470 Muelheim/Ruhr                 #
                #                      Germany                          #
                #                                                       #
                #                  All rights reserved                  #
                #                        -***-                          #
                #########################################################


                         Program Version 6.0.1  -  RELEASE   -


 With contributions from (in alphabetic order):
[Max-Planck-Institut fuer Kohlenforschung]                               
  Daniel Aravena         : Magnetic Suceptibility                        
  Michael Atanasov       : Ab Initio Ligand Field Theory (pilot matlab implementation)
  Alexander A. Auer      : GIAO ZORA, VPT2 properties, NMR spectrum      
  Ute Becker             : All parallelization in ORCA, NUMFREQ, NUMCALC 
  Giovanni Bistoni       : ED, misc. LED, open-shell LED, HFLD           
  Martin Brehm           : Molecular dynamics                            
  Dmytro Bykov           : pre 5.0 version of the SCF Hessian            
  Marcos Casanova-Páez   : Triplet and SCS-CIS(D). UHF-(DLPNO)-IP/EA/STEOM-CCSD. UHF-CVS-IP/STEOM-CCSD   
  Vijay G. Chilkuri      : MRCI spin determinant printing, contributions to CSF-ICE 
  Pauline Colinet        : FMM embedding                                 
  Dipayan Datta          : RHF DLPNO-CCSD density                        
  Achintya Kumar Dutta   : EOM-CC, STEOM-CC                              
  Nicolas Foglia         : Exact transition moments, OPA infrastructure, MCD improvements    
  Dmitry Ganyushin       : Spin-Orbit,Spin-Spin,Magnetic field MRCI      
  Miquel Garcia-Rates    : C-PCM and meta-GGA Hessian, CCSD/C-PCM, Gaussian charge scheme 
  Tiago L. C. Gouveia    : GS-ROHF, GS-ROCIS                             
  Yang Guo               : DLPNO-NEVPT2, F12-NEVPT2, CIM, IAO-localization        
  Andreas Hansen         : Spin unrestricted coupled pair/coupled cluster methods 
  Ingolf Harden          : AUTO-CI MPn and infrastructure                
  Benjamin Helmich-Paris : MC-RPA, TRAH-(SCF,CASSCF), AVAS, COSX integrals, SCF dyn. polar. 
  Lee Huntington         : MR-EOM, pCC                                   
  Robert Izsak           : Overlap fitted RIJCOSX, COSX-SCS-MP3, EOM     
  Riya Kayal             : Wick's Theorem for AUTO-CI, AUTO-CI UHF-CCSDT 
  Emily Kempfer          : AUTO-CI, RHF CISDT and CCSDT                  
  Christian Kollmar      : KDIIS, OOCD, Brueckner-CCSD(T), CCSD density, CASPT2, CASPT2-K, improved NEVPT2 
  Axel Koslowski         : Symmetry handling                             
  Simone Kossmann        : meta-GGA functionals, TD-DFT gradient, OOMP2, (MP2 Hessian; deprecated post 5.0) 
  Lucas Lang             : DCDCAS                                        
  Marvin Lechner         : AUTO-CI (C++ implementation), FIC-MRCC        
  Spencer Leger          : CASSCF response                               
  Dagmar Lenk            : GEPOL surface, SMD, ORCA-2-JSON               
  Dimitrios Liakos       : Extrapolation schemes; Compound Job, initial MDCI parallelization 
  Dimitrios Manganas     : Further ROCIS development; embedding schemes. LFT, Crystal Embedding 
  Dimitrios Pantazis     : SARC Basis sets                               
  Anastasios Papadopoulos: AUTO-CI, single reference methods and gradients 
  Taras Petrenko         : pre 6.0 DFT Hessian and TD-DFT gradient, (ASA, deprecated), ECA, 1-Electron XAS/XES, NRVS 
  Peter Pinski           : DLPNO-MP2, DLPNO-MP2 Gradient                 
  Christoph Reimann      : Effective Core Potentials                     
  Marius Retegan         : Local ZFS, SOC                                
  Christoph Riplinger    : Optimizer, TS searches, QM/MM, DLPNO-CCSD(T), (RO)-DLPNO pert. Triples 
  Michael Roemelt        : Original ROCIS implementation                 
  Masaaki Saitow         : Open-shell DLPNO-CCSD energy and density      
  Barbara Sandhoefer     : DKH picture change effects                    
  Kantharuban Sivalingam : CASSCF convergence/infrastructure, NEVPT2 and variants, FIC-MRCI 
  Bernardo de Souza      : ESD, SOC TD-DFT                               
  Georgi L. Stoychev     : AutoAux, RI-MP2 NMR, DLPNO-MP2 response, X2C  
  Van Anh Tran           : RI-MP2 g-tensors                              
  Willem Van den Heuvel  : Paramagnetic NMR                              
  Zikuan Wang            : NOTCH, Electric field optimization            
  Frank Wennmohs         : Technical directorship and infrastructure     
  Hang Xu                : AUTO-CI-Response properties                   
                                                                         
[FACCTs GmbH]                                                            
  Markus Bursch, Miquel Garcia-Rates, Christoph Riplinger, Bernardo de Souza, Georgi L. Stoychev 
                                                                 
  APM, Basis sets (HGBS, AHGBS, def-TZVP (Ac-Lr), def2-XVPD (La-Lu)), CI-OPT, improved COSX, DLPNO-Multilevel,           
  DOCKER, DRACO, updates on ESD, GOAT, IRC, LR-CPCM, MBIS, meta-GGA TD-DFT gradient, ML-optimized integration grids, 
  MM, NACMEs, nearIR, NEB, NEB-TS, NL-DFT gradient (VV10), 2- and 3-layer-ONIOM, interface openCOSMO-RS, QMMM,   
  Crystal-QMMM, SF, symmetry and pop. for TD-DFT, r2SCAN hybrids, SOLVATOR                                   
                                                                         
[Other institutions]                                                     
  V. Asgeirsson          : NEB                                           
  Christoph Bannwarth    : sTDA-DFT, sTD-DFT, PBEh-3c, B97-3c, D3        
  Sebastian Ehlert       : rSCAN, r2SCAN, r2SCAN-3c, D4, dhf basis sets  
  Marvin Friede          : D4 for Fr, Ra, Ac-Lr                          
  Lars Goerigk           : TD-DFT with DH, B97 family of functionals     
  Stefan Grimme          : VdW corrections, initial TS optimization, DFT functionals, gCP, sTDA/sTD-DF 
  Waldemar Hujo          : DFT-NL                                        
  H. Jonsson             : NEB                                           
  Holger Kruse           : gCP                                           
  Marcel Mueller         : wB97X-3c, vDZP basis set                      
  Hagen Neugebauer       : wr2SCAN                                       
  Tobias Risthaus        : range-separated hybrid DFT                    
  Lukas Wittmann         : regularized MP2, r2SCAN double-hybrids, wr2SCAN        
                                                                         
We gratefully acknowledge several colleagues who have allowed us to      
interface, adapt or use parts of their codes:                            
  Ed Valeev, F. Pavosevic, A. Kumar             : LibInt (2-el integral package), F12 methods 
  Garnet Chan, S. Sharma, J. Yang, R. Olivares  : DMRG                   
  Ulf Ekstrom                                   : XCFun DFT Library      
  Mihaly Kallay                                 : mrcc  (arbitrary order and MRCC methods)
  Frank Weinhold                                : gennbo (NPA and NBO analysis)           
  Simon Mueller                                 : openCOSMO-RS                            
  Christopher J. Cramer and Donald G. Truhlar   : smd solvation model                     
  S Lehtola, MJT Oliveira, MAL Marques          : LibXC Library                           
  Liviu Ungur et al                             : ANISO software                          


 Your calculation uses the libint2 library for the computation of 2-el integrals
 For citations please refer to: http://libint.valeyev.net

 Your ORCA version has been built with support for libXC version: 6.2.2
 For citations please refer to: https://libxc.gitlab.io

 This ORCA versions uses:
   CBLAS   interface :  Fast vector & matrix operations
   LAPACKE interface :  Fast linear algebra routines
   SCALAPACK package :  Parallel linear algebra routines
   Shared memory     :  Shared parallel matrices
   BLAS/LAPACK       :  OpenBLAS 0.3.27  USE64BITINT DYNAMIC_ARCH NO_AFFINITY Cooperlake SINGLE_THREADED
        Core in use  :  Cooperlake
   Copyright (c) 2011-2014, The OpenBLAS Project


NOTE: MaxCore=3600 MB was set to SCF,MP2,MDCI,CIPSI,MRCI and CIS
      => If you want to overwrite this, your respective input block should be placed after the MaxCore statement
Warning: RI is on but no J-basis has been assigned. Assigning Def2/J (nothing to worry about!)
================================================================================

----- Orbital basis set information -----
Your calculation utilizes the basis: def2-TZVP
   F. Weigend and R. Ahlrichs, Phys. Chem. Chem. Phys. 7, 3297 (2005).

----- AuxJ basis set information -----
Your calculation utilizes the auxiliary basis: def2/J
   F. Weigend, Phys. Chem. Chem. Phys. 8, 1057 (2006).

================================================================================
                                        WARNINGS
                       Please study these warnings very carefully!
================================================================================


WARNING: your system is open-shell and RHF/RKS was chosen
  ===> : WILL SWITCH to UHF/UKS


WARNING: Geometry Optimization
  ===> : Switching off AutoStart
         For restart on a previous wavefunction, please use MOREAD

================================================================================
                                       INPUT FILE
================================================================================
NAME = UWIQIB-S6.inp
|  1> ! PBE0 def2-TZVP  Opt Freq DEFGRID3
|  2> 
|  3> %maxcore 3600
|  4> 
|  5> %pal
|  6>     nprocs 16
|  7> end
|  8> 
|  9> *xyz 0 2
| 10> C 9.4126 -0.3898 10.3357
| 11> H 9.6094 0.2562 11.0184
| 12> H 9.3707 -1.2649 10.7276
| 13> H 8.5696 -0.1782 9.93
| 14> C 10.3226 -1.2203 8.286
| 15> C 9.3777 -2.2195 8.1798
| 16> H 8.7496 -2.3292 8.8572
| 17> C 9.3498 -3.0643 7.0809
| 18> H 8.7161 -3.7436 7.0269
| 19> C 10.2612 -2.8893 6.0761
| 20> H 10.2375 -3.4461 5.3324
| 21> C 11.2466 -1.8678 6.152
| 22> C 11.2964 -1.0197 7.274
| 23> C 12.2096 -1.8201 5.0939
| 24> H 12.0742 -2.4231 4.399
| 25> C 14.0994 -1.3619 3.8156
| 26> H 13.5522 -1.7533 3.1155
| 27> H 14.7539 -2.0269 4.0803
| 28> C 14.8181 -0.183 3.2548
| 29> H 14.1775 0.5282 3.0981
| 30> H 15.1992 -0.428 2.3963
| 31> C 15.9124 0.3405 4.136
| 32> H 16.4274 -0.4073 4.4774
| 33> H 16.5097 0.8926 3.6066
| 34> C 16.0924 2.1908 5.5414
| 35> H 16.7791 2.3945 4.9476
| 36> C 15.9263 3.0945 6.6426
| 37> C 16.8489 4.1589 6.7535
| 38> H 17.4797 4.2878 6.083
| 39> C 16.8294 4.999 7.8193
| 40> H 17.449 5.691 7.8768
| 41> C 15.8831 4.8271 8.8241
| 42> H 15.8607 5.4142 9.5451
| 43> C 14.9745 3.7882 8.7562
| 44> C 14.9773 2.8956 7.6659
| 45> C 13.9654 4.3339 10.8634
| 46> H 13.2689 4.0173 11.4451
| 47> H 13.7728 5.236 10.597
| 48> H 14.8056 4.31 11.3284
| 49> N 13.2371 -1.059 4.9754
| 50> N 15.4082 1.1328 5.2708
| 51> O 10.4376 -0.362 9.3457
| 52> O 12.1905 -0.0761 7.4278
| 53> O 14.1091 1.8982 7.665
| 54> O 14.0352 3.5045 9.7111
| 55> O 14.9615 -0.8291 7.278
| 56> Cl 12.4025 2.0231 4.9502
| 57> Fe 13.6304 0.5866 6.3359
| 58> H 15.5341 -0.4932 7.7496
| 59> H 14.5851 -1.3842 7.6103
| 60> *
| 61> 
| 62>                          ****END OF INPUT****
================================================================================

                       *****************************
                       * Geometry Optimization Run *
                       *****************************

Geometry optimization settings:
Update method            Update   .... BFGS
Choice of coordinates    CoordSys .... (2022) Redundant Internals
Initial Hessian          InHess   .... Almloef's Model
Max. no of cycles        MaxIter  .... 150

Convergence Tolerances:
Energy Change            TolE     ....  5.0000e-06 Eh
Max. Gradient            TolMAXG  ....  3.0000e-04 Eh/bohr
RMS Gradient             TolRMSG  ....  1.0000e-04 Eh/bohr
Max. Displacement        TolMAXD  ....  4.0000e-03 bohr
RMS Displacement         TolRMSD  ....  2.0000e-03 bohr
Strict Convergence                .... False

------------------------------------------------------------------------------
                        ORCA OPTIMIZATION COORDINATE SETUP
------------------------------------------------------------------------------

The optimization will be done in redundant internal coordinates (2022)
Making redundant internal coordinates   ...  (2022 redundants) done
Evaluating the initial hessian          ...  (Almloef) done
Evaluating the coordinates              ...  done
Calculating the B-matrix                .... done
Calculating the G-matrix                .... done
Diagonalizing the G-matrix              .... done
Small eigenvalue found = 4.478e-03
Small eigenvalue found = 1.038e-02
Small eigenvalue found = 1.190e-02
The first mode is                       ....  141
The number of degrees of freedom        ....  144

    -----------------------------------------------------------------
                    Redundant Internal Coordinates


    -----------------------------------------------------------------
         Definition                    Initial Value    Approx d2E/dq
    -----------------------------------------------------------------
      1. B(H   1,C   0)                  0.9603         0.579954   
      2. B(H   2,C   0)                  0.9598         0.581047   
      3. B(H   3,C   0)                  0.9592         0.582300   
      4. B(C   5,C   4)                  1.3793         0.649805   
      5. B(H   6,C   5)                  0.9303         0.647518   
      6. B(C   7,C   5)                  1.3864         0.633163   
      7. B(H   8,C   7)                  0.9306         0.646846   
      8. B(C   9,C   7)                  1.3678         0.677868   
      9. B(H  10,C   9)                  0.9293         0.649743   
     10. B(C  11,C   9)                  1.4214         0.556828   
     11. B(C  12,C  11)                  1.4074         0.586213   
     12. B(C  12,C   4)                  1.4187         0.562304   
     13. B(C  13,C  11)                  1.4315         0.536429   
     14. B(H  14,C  13)                  0.9300         0.648268   
     15. B(H  16,C  15)                  0.9710         0.557629   
     16. B(H  17,C  15)                  0.9699         0.559850   
     17. B(C  18,C  15)                  1.4902         0.432318   
     18. B(H  19,C  18)                  0.9699         0.559779   
     19. B(H  20,C  18)                  0.9707         0.558133   
     20. B(C  21,C  18)                  1.4994         0.418094   
     21. B(H  22,C  21)                  0.9700         0.559508   
     22. B(H  23,C  21)                  0.9705         0.558596   
     23. B(H  25,C  24)                  0.9304         0.647218   
     24. B(C  26,C  24)                  1.4342         0.531171   
     25. B(C  27,C  26)                  1.4130         0.574273   
     26. B(H  28,C  27)                  0.9296         0.649209   
     27. B(C  29,C  27)                  1.3572         0.704723   
     28. B(H  30,C  29)                  0.9306         0.646675   
     29. B(C  31,C  29)                  1.3909         0.622690   
     30. B(H  32,C  31)                  0.9301         0.648011   
     31. B(C  33,C  31)                  1.3818         0.643813   
     32. B(C  34,C  33)                  1.4091         0.582510   
     33. B(C  34,C  26)                  1.4097         0.581138   
     34. B(H  36,C  35)                  0.9611         0.578185   
     35. B(H  37,C  35)                  0.9601         0.580261   
     36. B(H  38,C  35)                  0.9606         0.579281   
     37. B(N  39,C  15)                  1.4766         0.407059   
     38. B(N  39,C  13)                  1.2842         0.825531   
     39. B(N  40,C  24)                  1.2887         0.811917   
     40. B(N  40,C  21)                  1.4730         0.412529   
     41. B(O  41,C   4)                  1.3685         0.605527   
     42. B(O  41,C   0)                  1.4253         0.491526   
     43. B(O  42,C  12)                  1.3090         0.753572   
     44. B(O  43,C  34)                  1.3223         0.717506   
     45. B(O  44,C  35)                  1.4215         0.498506   
     46. B(O  44,C  33)                  1.3692         0.604117   
     47. B(Fe 47,Cl 46)                  2.3434         0.427367   
     48. B(Fe 47,O  45)                  2.1595         0.335165   
     49. B(Fe 47,O  43)                  1.9277         0.785532   
     50. B(Fe 47,O  42)                  1.9248         0.793987   
     51. B(Fe 47,N  40)                  2.1432         0.355880   
     52. B(Fe 47,N  39)                  2.1711         0.321230   
     53. B(H  48,O  45)                  0.8143         0.887975   
     54. B(H  49,O  45)                  0.7485         1.130885   
     55. A(H   2,C   0,O  41)          109.4389         0.365739   
     56. A(H   3,C   0,O  41)          109.5087         0.365874   
     57. A(H   2,C   0,H   3)          109.6022         0.339771   
     58. A(H   1,C   0,O  41)          109.4697         0.365621   
     59. A(H   1,C   0,H   3)          109.4156         0.339665   
     60. A(H   1,C   0,H   2)          109.3921         0.339542   
     61. A(C   5,C   4,O  41)          124.8562         0.433039   
     62. A(C   5,C   4,C  12)          121.1803         0.430127   
     63. A(C  12,C   4,O  41)          113.9538         0.421959   
     64. A(C   4,C   5,C   7)          121.0806         0.439415   
     65. A(H   6,C   5,C   7)          119.4546         0.391828   
     66. A(C   4,C   5,H   6)          119.4647         0.393612   
     67. A(C   5,C   7,H   8)          120.2999         0.391757   
     68. A(H   8,C   7,C   9)          120.2998         0.396468   
     69. A(C   5,C   7,C   9)          119.4002         0.442784   
     70. A(H  10,C   9,C  11)          119.4063         0.383378   
     71. A(C   7,C   9,H  10)          119.6181         0.396780   
     72. A(C   7,C   9,C  11)          120.9756         0.432645   
     73. A(C   9,C  11,C  13)          116.7989         0.414917   
     74. A(C  12,C  11,C  13)          123.0518         0.418733   
     75. A(C   9,C  11,C  12)          120.0131         0.421530   
     76. A(C   4,C  12,C  11)          117.3357         0.422267   
     77. A(C  11,C  12,O  42)          123.5215         0.442170   
     78. A(C   4,C  12,O  42)          119.1413         0.438857   
     79. A(C  11,C  13,N  39)          128.7717         0.442366   
     80. A(C  11,C  13,H  14)          115.6433         0.380752   
     81. A(H  14,C  13,N  39)          115.5849         0.408007   
     82. A(H  17,C  15,N  39)          108.6847         0.351956   
     83. A(H  16,C  15,H  17)          107.5000         0.335246   
     84. A(H  16,C  15,N  39)          108.6579         0.351720   
     85. A(H  17,C  15,C  18)          108.6424         0.357775   
     86. A(H  16,C  15,C  18)          108.6232         0.357534   
     87. A(C  18,C  15,N  39)          114.5146         0.375756   
     88. A(H  20,C  18,C  21)          108.7456         0.355562   
     89. A(H  19,C  18,C  21)          108.7221         0.355740   
     90. A(C  15,C  18,C  21)          114.0179         0.379891   
     91. A(C  15,C  18,H  20)          108.8135         0.357589   
     92. A(H  19,C  18,H  20)          107.5468         0.335290   
     93. A(C  15,C  18,H  19)          108.8045         0.357768   
     94. A(H  22,C  21,H  23)          107.6851         0.335309   
     95. A(C  18,C  21,H  23)          109.1003         0.355612   
     96. A(H  22,C  21,N  40)          108.9800         0.352715   
     97. A(C  18,C  21,H  22)          108.9756         0.355711   
     98. A(C  18,C  21,N  40)          113.0017         0.374454   
     99. A(H  23,C  21,N  40)          108.9612         0.352618   
    100. A(H  25,C  24,C  26)          115.9483         0.379995   
    101. A(C  26,C  24,N  40)          128.1013         0.440255   
    102. A(H  25,C  24,N  40)          115.9503         0.406692   
    103. A(C  27,C  26,C  34)          119.2666         0.423201   
    104. A(C  24,C  26,C  34)          123.1213         0.417352   
    105. A(C  24,C  26,C  27)          117.3429         0.416470   
    106. A(H  28,C  27,C  29)          119.3629         0.399440   
    107. A(C  26,C  27,C  29)          121.2344         0.438109   
    108. A(C  26,C  27,H  28)          119.4025         0.385385   
    109. A(H  30,C  29,C  31)          120.0148         0.390598   
    110. A(C  27,C  29,C  31)          120.0370         0.444564   
    111. A(C  27,C  29,H  30)          119.9481         0.399166   
    112. A(H  32,C  31,C  33)          119.7911         0.393026   
    113. A(C  29,C  31,C  33)          120.3157         0.437363   
    114. A(C  29,C  31,H  32)          119.8932         0.390739   
    115. A(C  31,C  33,C  34)          120.8618         0.432143   
    116. A(C  34,C  33,O  44)          114.1896         0.424453   
    117. A(C  31,C  33,O  44)          124.9321         0.432137   
    118. A(C  26,C  34,C  33)          118.2703         0.424280   
    119. A(C  33,C  34,O  43)          118.4913         0.437771   
    120. A(C  26,C  34,O  43)          123.2242         0.437585   
    121. A(H  37,C  35,H  38)          109.4599         0.339400   
    122. A(H  36,C  35,H  38)          109.4317         0.339197   
    123. A(H  36,C  35,H  37)          109.3941         0.339293   
    124. A(H  38,C  35,O  44)          109.5692         0.366433   
    125. A(H  37,C  35,O  44)          109.4597         0.366539   
    126. A(H  36,C  35,O  44)          109.5125         0.366314   
    127. A(C  13,N  39,C  15)          114.7179         0.418237   
    128. A(C  15,N  39,Fe 47)          122.8117         0.396846   
    129. A(C  13,N  39,Fe 47)          122.4355         0.450273   
    130. A(C  21,N  40,C  24)          114.9376         0.417993   
    131. A(C  24,N  40,Fe 47)          123.0440         0.457358   
    132. A(C  21,N  40,Fe 47)          121.9863         0.405020   
    133. A(C   0,O  41,C   4)          117.7219         0.409316   
    134. A(C  12,O  42,Fe 47)          133.8300         0.523331   
    135. A(C  34,O  43,Fe 47)          132.5879         0.517497   
    136. A(C  33,O  44,C  35)          118.5649         0.410170   
    137. A(H  48,O  45,H  49)          113.7291         0.402352   
    138. A(Fe 47,O  45,H  49)          111.7090         0.426602   
    139. A(Fe 47,O  45,H  48)          114.5607         0.408621   
    140. A(O  45,Fe 47,Cl 46)          169.3586         0.470109   
    141. A(O  43,Fe 47,Cl 46)           96.9348         0.551139   
    142. A(N  40,Fe 47,Cl 46)           89.1151         0.475317   
    143. A(N  39,Fe 47,Cl 46)           89.9519         0.466464   
    144. A(O  43,Fe 47,O  45)           89.5525         0.506572   
    145. A(O  42,Fe 47,O  45)           89.3078         0.507585   
    146. A(N  40,Fe 47,O  45)           82.6795         0.438062   
    147. A(N  39,Fe 47,O  45)           83.5779         0.430062   
    148. A(O  42,Fe 47,Cl 46)           98.8890         0.552260   
    149. A(O  42,Fe 47,O  43)           91.6561         0.596583   
    150. A(N  40,Fe 47,O  43)           87.8943         0.512279   
    151. A(N  39,Fe 47,O  43)          173.1021         0.502578   
    152. A(N  40,Fe 47,O  42)          171.9772         0.513305   
    153. A(N  39,Fe 47,O  42)           87.6504         0.503581   
    154. A(N  39,Fe 47,N  40)           91.8346         0.434723   
    155. D(C   7,C   5,C   4,C  12)      0.1566         0.029398   
    156. D(H   6,C   5,C   4,O  41)      1.2684         0.029398   
    157. D(H   6,C   5,C   4,C  12)   -179.9349         0.029398   
    158. D(C   7,C   5,C   4,O  41)   -178.6401         0.029398   
    159. D(H   8,C   7,C   5,H   6)     -0.9004         0.027814   
    160. D(H   8,C   7,C   5,C   4)    179.0082         0.027814   
    161. D(C   9,C   7,C   5,C   4)     -1.0657         0.027814   
    162. D(C   9,C   7,C   5,H   6)    179.0258         0.027814   
    163. D(H  10,C   9,C   7,C   5)   -179.1246         0.032194   
    164. D(C  11,C   9,C   7,H   8)   -179.1539         0.032194   
    165. D(H  10,C   9,C   7,H   8)      0.8015         0.032194   
    166. D(C  11,C   9,C   7,C   5)      0.9199         0.032194   
    167. D(C  12,C  11,C   9,C   7)      0.1262         0.021230   
    168. D(C  13,C  11,C   9,C   7)    176.0136         0.021230   
    169. D(C  12,C  11,C   9,H  10)   -179.8294         0.021230   
    170. D(C  13,C  11,C   9,H  10)     -3.9419         0.021230   
    171. D(O  42,C  12,C  11,C  13)      2.9186         0.023634   
    172. D(O  42,C  12,C  11,C   9)    178.5385         0.023634   
    173. D(C   4,C  12,C  11,C  13)   -176.6205         0.023634   
    174. D(C   4,C  12,C  11,C   9)     -1.0005         0.023634   
    175. D(O  42,C  12,C   4,O  41)      0.2296         0.021665   
    176. D(C  11,C  12,C   4,O  41)    179.7896         0.021665   
    177. D(C  11,C  12,C   4,C   5)      0.8700         0.021665   
    178. D(O  42,C  12,C   4,C   5)   -178.6900         0.021665   
    179. D(N  39,C  13,C  11,C  12)      0.6128         0.019654   
    180. D(N  39,C  13,C  11,C   9)   -175.1384         0.019654   
    181. D(H  14,C  13,C  11,C  12)   -179.5414         0.019654   
    182. D(H  14,C  13,C  11,C   9)      4.7075         0.019654   
    183. D(H  19,C  18,C  15,N  39)    -50.9205         0.014773   
    184. D(H  19,C  18,C  15,H  17)   -172.6187         0.014773   
    185. D(H  19,C  18,C  15,H  16)     70.7288         0.014773   
    186. D(H  20,C  18,C  15,N  39)   -167.8228         0.014773   
    187. D(H  20,C  18,C  15,H  17)     70.4790         0.014773   
    188. D(H  20,C  18,C  15,H  16)    -46.1735         0.014773   
    189. D(H  23,C  21,C  18,H  20)     39.9829         0.013833   
    190. D(H  23,C  21,C  18,H  19)    -76.8362         0.013833   
    191. D(H  22,C  21,C  18,H  20)    -77.3416         0.013833   
    192. D(H  23,C  21,C  18,C  15)    161.5878         0.013833   
    193. D(H  22,C  21,C  18,H  19)    165.8393         0.013833   
    194. D(H  22,C  21,C  18,C  15)     44.2633         0.013833   
    195. D(C  34,C  26,C  24,N  40)      3.2638         0.019261   
    196. D(C  27,C  26,C  24,N  40)    177.2514         0.019261   
    197. D(C  27,C  26,C  24,H  25)     -2.8432         0.019261   
    198. D(C  34,C  26,C  24,H  25)   -176.8308         0.019261   
    199. D(C  29,C  27,C  26,C  34)     -0.6313         0.022637   
    200. D(C  29,C  27,C  26,C  24)   -174.8599         0.022637   
    201. D(H  28,C  27,C  26,C  34)    179.5326         0.022637   
    202. D(H  28,C  27,C  26,C  24)      5.3041         0.022637   
    203. D(C  31,C  29,C  27,H  28)    179.3631         0.035018   
    204. D(C  31,C  29,C  27,C  26)     -0.4730         0.035018   
    205. D(H  30,C  29,C  27,H  28)     -0.5533         0.035018   
    206. D(H  30,C  29,C  27,C  26)    179.6106         0.035018   
    207. D(H  32,C  31,C  29,H  30)      1.1354         0.026845   
    208. D(C  33,C  31,C  29,H  30)   -178.9141         0.026845   
    209. D(C  33,C  31,C  29,C  27)      1.1696         0.026845   
    210. D(H  32,C  31,C  29,C  27)   -178.7809         0.026845   
    211. D(O  44,C  33,C  31,H  32)     -2.3690         0.028822   
    212. D(C  34,C  33,C  31,C  29)     -0.7530         0.028822   
    213. D(O  44,C  33,C  31,C  29)    177.6804         0.028822   
    214. D(C  34,C  33,C  31,H  32)    179.1975         0.028822   
    215. D(C  33,C  34,C  26,C  24)    174.9004         0.023207   
    216. D(O  43,C  34,C  26,C  24)     -3.7051         0.023207   
    217. D(C  33,C  34,C  26,C  27)      1.0230         0.023207   
    218. D(O  43,C  34,C  33,O  44)     -0.2655         0.023322   
    219. D(O  43,C  34,C  33,C  31)    178.3266         0.023322   
    220. D(C  26,C  34,C  33,O  44)   -178.9383         0.023322   
    221. D(C  26,C  34,C  33,C  31)     -0.3462         0.023322   
    222. D(O  43,C  34,C  26,C  27)   -177.5826         0.023207   
    223. D(Fe 47,N  39,C  15,H  17)     93.8047         0.014138   
    224. D(Fe 47,N  39,C  15,H  16)   -149.5006         0.014138   
    225. D(C  13,N  39,C  15,C  18)    150.0275         0.014138   
    226. D(C  13,N  39,C  15,H  17)    -88.2974         0.014138   
    227. D(C  13,N  39,C  15,H  16)     28.3972         0.014138   
    228. D(Fe 47,N  39,C  13,H  14)    172.3564         0.058560   
    229. D(Fe 47,N  39,C  13,C  11)     -7.7976         0.058560   
    230. D(C  15,N  39,C  13,H  14)     -5.5503         0.058560   
    231. D(C  15,N  39,C  13,C  11)    174.2957         0.058560   
    232. D(Fe 47,N  40,C  24,C  26)      7.8019         0.056407   
    233. D(Fe 47,N  40,C  24,H  25)   -172.1035         0.056407   
    234. D(C  21,N  40,C  24,C  26)   -174.2208         0.056407   
    235. D(C  21,N  40,C  24,H  25)      5.8738         0.056407   
    236. D(Fe 47,N  40,C  21,H  22)    -82.6027         0.014516   
    237. D(Fe 47,N  40,C  21,C  18)     38.7004         0.014516   
    238. D(C  24,N  40,C  21,H  23)    -17.8521         0.014516   
    239. D(C  24,N  40,C  21,H  22)     99.3963         0.014516   
    240. D(C  24,N  40,C  21,C  18)   -139.3005         0.014516   
    241. D(C   0,O  41,C   4,C  12)    173.0298         0.026812   
    242. D(C   0,O  41,C   4,C   5)     -8.0967         0.026812   
    243. D(C   4,O  41,C   0,H   3)    -59.9076         0.019081   
    244. D(C   4,O  41,C   0,H   2)     60.2560         0.019081   
    245. D(C   4,O  41,C   0,H   1)   -179.8615         0.019081   
    246. D(Fe 47,O  42,C  12,C  11)      2.6814         0.043174   
    247. D(Fe 47,O  42,C  12,C   4)   -177.7875         0.043174   
    248. D(Fe 47,O  43,C  34,C  33)    172.2770         0.038740   
    249. D(Fe 47,O  43,C  34,C  26)     -9.1203         0.038740   
    250. D(C  33,O  44,C  35,H  38)    -59.7057         0.019643   
    251. D(C  33,O  44,C  35,H  37)     60.3335         0.019643   
    252. D(C  33,O  44,C  35,H  36)   -179.7428         0.019643   
    253. D(C  35,O  44,C  33,C  34)    178.9893         0.026679   
    254. D(C  35,O  44,C  33,C  31)      0.4634         0.026679   
    255. D(N  39,Fe 47,O  45,H  49)    -68.8150         0.002094   
    256. D(N  39,Fe 47,O  45,H  48)    160.0248         0.002094   
    257. D(Cl 46,Fe 47,O  43,C  34)    -74.1473         0.004552   
    258. D(O  42,Fe 47,O  43,C  34)   -173.3102         0.004552   
    259. D(N  40,Fe 47,O  43,C  34)     14.7044         0.004552   
    260. D(N  39,Fe 47,O  43,C  34)    102.5731         0.004552   
    261. D(O  45,Fe 47,O  42,C  12)    -90.6414         0.004619   
    262. D(O  43,Fe 47,O  42,C  12)    179.8263         0.004619   
    263. D(N  40,Fe 47,O  42,C  12)    -93.5127         0.004619   
    264. D(N  39,Fe 47,O  42,C  12)     -7.0408         0.004619   
    265. D(O  45,Fe 47,N  40,C  21)     79.0352         0.002169   
    266. D(O  43,Fe 47,N  40,C  24)    -13.3081         0.002169   
    267. D(O  43,Fe 47,N  40,C  21)    168.8544         0.002169   
    268. D(O  42,Fe 47,N  40,C  24)   -100.2326         0.002169   
    269. D(O  42,Fe 47,N  40,C  21)     81.9299         0.002169   
    270. D(N  39,Fe 47,N  40,C  24)    173.5885         0.002169   
    271. D(N  39,Fe 47,N  40,C  21)     -4.2490         0.002169   
    272. D(Cl 46,Fe 47,O  42,C  12)     82.5427         0.004619   
    273. D(O  45,Fe 47,N  39,C  13)     98.5289         0.002047   
    274. D(O  43,Fe 47,N  39,C  15)    -88.9441         0.002047   
    275. D(O  43,Fe 47,N  39,C  13)     93.3184         0.002047   
    276. D(O  45,Fe 47,O  43,C  34)     97.3952         0.004552   
    277. D(O  42,Fe 47,N  39,C  15)   -173.3011         0.002047   
    278. D(O  42,Fe 47,N  39,C  13)      8.9614         0.002047   
    279. D(N  40,Fe 47,N  39,C  15)     -1.3128         0.002047   
    280. D(N  40,Fe 47,O  45,H  48)     67.3342         0.002094   
    281. D(N  40,Fe 47,N  39,C  13)   -179.0503         0.002047   
    282. D(O  43,Fe 47,O  45,H  48)    -20.6002         0.002094   
    283. D(O  42,Fe 47,O  45,H  49)     18.8983         0.002094   
    284. D(O  42,Fe 47,O  45,H  48)   -112.2619         0.002094   
    285. D(N  40,Fe 47,O  45,H  49)   -161.5055         0.002094   
    -----------------------------------------------------------------

Number of atoms                         .... 50
Number of degrees of freedom            .... 285


         *************************************************************
         *                GEOMETRY OPTIMIZATION CYCLE   1            *
         *************************************************************
---------------------------------
CARTESIAN COORDINATES (ANGSTROEM)
---------------------------------
  C      9.412600   -0.389800   10.335700
  H      9.609400    0.256200   11.018400
  H      9.370700   -1.264900   10.727600
  H      8.569600   -0.178200    9.930000
  C     10.322600   -1.220300    8.286000
  C      9.377700   -2.219500    8.179800
  H      8.749600   -2.329200    8.857200
  C      9.349800   -3.064300    7.080900
  H      8.716100   -3.743600    7.026900
  C     10.261200   -2.889300    6.076100
  H     10.237500   -3.446100    5.332400
  C     11.246600   -1.867800    6.152000
  C     11.296400   -1.019700    7.274000
  C     12.209600   -1.820100    5.093900
  H     12.074200   -2.423100    4.399000
  C     14.099400   -1.361900    3.815600
  H     13.552200   -1.753300    3.115500
  H     14.753900   -2.026900    4.080300
  C     14.818100   -0.183000    3.254800
  H     14.177500    0.528200    3.098100
  H     15.199200   -0.428000    2.396300
  C     15.912400    0.340500    4.136000
  H     16.427400   -0.407300    4.477400
  H     16.509700    0.892600    3.606600
  C     16.092400    2.190800    5.541400
  H     16.779100    2.394500    4.947600
  C     15.926300    3.094500    6.642600
  C     16.848900    4.158900    6.753500
  H     17.479700    4.287800    6.083000
  C     16.829400    4.999000    7.819300
  H     17.449000    5.691000    7.876800
  C     15.883100    4.827100    8.824100
  H     15.860700    5.414200    9.545100
  C     14.974500    3.788200    8.756200
  C     14.977300    2.895600    7.665900
  C     13.965400    4.333900   10.863400
  H     13.268900    4.017300   11.445100
  H     13.772800    5.236000   10.597000
  H     14.805600    4.310000   11.328400
  N     13.237100   -1.059000    4.975400
  N     15.408200    1.132800    5.270800
  O     10.437600   -0.362000    9.345700
  O     12.190500   -0.076100    7.427800
  O     14.109100    1.898200    7.665000
  O     14.035200    3.504500    9.711100
  O     14.961500   -0.829100    7.278000
  Cl    12.402500    2.023100    4.950200
  Fe    13.630400    0.586600    6.335900
  H     15.534100   -0.493200    7.749600
  H     14.585100   -1.384200    7.610300

----------------------------
CARTESIAN COORDINATES (A.U.)
----------------------------
  NO LB      ZA    FRAG     MASS         X           Y           Z
   0 C     6.0000    0    12.011   17.787236   -0.736615   19.531642
   1 H     1.0000    0     1.008   18.159134    0.484148   20.821758
   2 H     1.0000    0     1.008   17.708057   -2.390315   20.272226
   3 H     1.0000    0     1.008   16.194197   -0.336749   18.764981
   4 C     6.0000    0    12.011   19.506887   -2.306033   15.658271
   5 C     6.0000    0    12.011   17.721285   -4.194247   15.457582
   6 H     1.0000    0     1.008   16.534348   -4.401550   16.737682
   7 C     6.0000    0    12.011   17.668561   -5.790688   13.380962
   8 H     1.0000    0     1.008   16.471042   -7.074379   13.278917
   9 C     6.0000    0    12.011   19.390858   -5.459986   11.482165
  10 H     1.0000    0     1.008   19.346071   -6.512185   10.076776
  11 C     6.0000    0    12.011   21.252994   -3.529630   11.625595
  12 C     6.0000    0    12.011   21.347102   -1.926954   13.745868
  13 C     6.0000    0    12.011   23.072800   -3.439491    9.626076
  14 H     1.0000    0     1.008   22.816931   -4.578995    8.312905
  15 C     6.0000    0    12.011   26.644005   -2.573618    7.210439
  16 H     1.0000    0     1.008   25.609947   -3.313257    5.887442
  17 H     1.0000    0     1.008   27.880830   -3.830286    7.710650
  18 C     6.0000    0    12.011   28.002151   -0.345820    6.150681
  19 H     1.0000    0     1.008   26.791592    0.998153    5.854561
  20 H     1.0000    0     1.008   28.722325   -0.808803    4.528351
  21 C     6.0000    0    12.011   30.070078    0.643452    7.815907
  22 H     1.0000    0     1.008   31.043287   -0.769685    8.461060
  23 H     1.0000    0     1.008   31.198812    1.686770    6.815486
  24 C     6.0000    0    12.011   30.410229    4.140012   10.471728
  25 H     1.0000    0     1.008   31.707904    4.524949    9.349609
  26 C     6.0000    0    12.011   30.096345    5.847758   12.552695
  27 C     6.0000    0    12.011   31.839807    7.859182   12.762265
  28 H     1.0000    0     1.008   33.031846    8.102768   11.495204
  29 C     6.0000    0    12.011   31.802957    9.446741   14.776336
  30 H     1.0000    0     1.008   32.973831   10.754431   14.884995
  31 C     6.0000    0    12.011   30.014709    9.121897   16.675132
  32 H     1.0000    0     1.008   29.972379   10.231355   18.037625
  33 C     6.0000    0    12.011   28.297704    7.158661   16.546820
  34 C     6.0000    0    12.011   28.302995    5.471891   14.486452
  35 C     6.0000    0    12.011   26.390781    8.189884   20.528851
  36 H     1.0000    0     1.008   25.074587    7.591597   21.628105
  37 H     1.0000    0     1.008   26.026820    9.894606   20.025428
  38 H     1.0000    0     1.008   27.978529    8.144720   21.407574
  39 N     7.0000    0    14.007   25.014494   -2.001220    9.402143
  40 N     7.0000    0    14.007   29.117278    2.140682    9.960369
  41 O     8.0000    0    15.999   19.724205   -0.684081   17.660814
  42 O     8.0000    0    15.999   23.036706   -0.143808   14.036508
  43 O     8.0000    0    15.999   26.662335    3.587078   14.484751
  44 O     8.0000    0    15.999   26.522684    6.622545   18.351319
  45 O     8.0000    0    15.999   28.273138   -1.566772   13.753427
  46 Cl   17.0000    0    35.453   23.437328    3.823105    9.354522
  47 Fe   26.0000    0    55.850   25.757723    1.108513   11.973116
  48 H     1.0000    0     1.008   29.355195   -0.932013   14.644622
  49 H     1.0000    0     1.008   27.561845   -2.615759   14.381383

--------------------------------
INTERNAL COORDINATES (ANGSTROEM)
--------------------------------
 C      0   0   0     0.000000000000     0.00000000     0.00000000
 H      1   0   0     0.960273674532     0.00000000     0.00000000
 H      1   2   0     0.959761027548   109.39206774     0.00000000
 H      1   2   3     0.959174671267   109.41559627   120.07794233
 C      1   2   3     2.391464057852   139.90518315   239.98000076
 C      5   1   2     1.379316892523    93.26128532   173.55506778
 H      6   5   1     0.930276550280   119.46474243   357.00001367
 C      6   5   1     1.386378974163   121.08062083   177.09150077
 H      8   6   5     0.930559068517   120.29992722   179.00815952
 C      8   6   5     1.367807735027   119.40020561   358.93432273
 H     10   8   6     0.929342574081   119.61811762   180.87537019
 C     10   8   6     1.421350139832   120.97555252     0.91990965
 C     12  10   8     1.407351288769   120.01314435     0.12616167
 C     12  10   8     1.431509657669   116.79892878   176.01361880
 H     14  12  10     0.929961380919   115.64328401     4.70749948
 C     14  12  10     2.327088775702   163.51420528   196.50909922
 H     16  14  12     0.970959221595    81.89660096   191.22599025
 H     16  14  12     0.969876971579   105.25385002    85.20425095
 C     16  14  12     1.490245463003   138.94863413   300.35318275
 H     19  16  14     0.969911691857   108.80447596   331.49507559
 H     19  16  14     0.970713376852   108.81351158   214.59278353
 C     19  16  14     1.499352586952   114.01787759    93.02553678
 H     22  19  16     0.970043194915   108.97561119    44.26325763
 H     22  19  16     0.970487537272   109.10027976   161.58775114
 C     22  19  16     2.330484767168   133.47250307   256.17843174
 H     25  22  19     0.930402611776    81.13857802   241.14784121
 C     25  22  19     1.434191179725   162.62462162    71.19130525
 C     27  25  22     1.412953265328   117.34294204   166.10875307
 H     28  27  25     0.929566619452   119.40245432     5.30406372
 C     28  27  25     1.357231704611   121.23444621   185.14014516
 H     30  28  27     0.930631189032   119.94812771   179.61058941
 C     30  28  27     1.390919242803   120.03700310   359.52699252
 H     32  30  28     0.930069443644   119.89315540   181.21910000
 C     32  30  28     1.381838478260   120.31567962     1.16958495
 C     34  32  30     1.409076538021   120.86176875   359.24695882
 C     34  32  30     2.399242201196    93.57728416   177.92203752
 H     36  34  32     0.961104937039   139.59151559   180.75471419
 H     36  34  32     0.960129225677    93.11732528    55.51541826
 H     36  34  32     0.960589532527    92.95872430   305.82721066
 N     14  12  10     1.284161870638   128.77169963   184.86163341
 N     25  22  19     1.288688480588    34.96869562    55.80410791
 O      5   1   2     1.368527668701    31.84251881     0.20268189
 O     13  12  10     1.308988239061   123.52145447   178.53854554
 O     35  34  32     1.322338387101   118.49129078   178.32657321
 O     34  32  30     1.369161856758   124.93208589   177.68042900
 O     41  25  22     2.842084506133   120.12459580   123.96688217
 Cl    20  19  16     2.969111890785   131.54826709    61.45348093
 Fe    43  13  12     1.924767235278   133.82997044     2.68137200
 H     46  41  25     0.814313287378    90.78760946   346.36845696
 H     46  41  25     0.748489318561   154.76016302   153.01790354

---------------------------
INTERNAL COORDINATES (A.U.)
---------------------------
 C      0   0   0     0.000000000000     0.00000000     0.00000000
 H      1   0   0     1.814654258481     0.00000000     0.00000000
 H      1   2   0     1.813685496077   109.39206774     0.00000000
 H      1   2   3     1.812577443288   109.41559627   120.07794233
 C      1   2   3     4.519212128457   139.90518315   239.98000076
 C      5   1   2     2.606531178760    93.26128532   173.55506778
 H      6   5   1     1.757967908837   119.46474243   357.00001367
 C      6   5   1     2.619876578994   121.08062083   177.09150077
 H      8   6   5     1.758501790935   120.29992722   179.00815952
 C      8   6   5     2.584782023060   119.40020561   358.93432273
 H     10   8   6     1.756202949607   119.61811762   180.87537019
 C     10   8   6     2.685962504693   120.97555252     0.91990965
 C     12  10   8     2.659508509995   120.01314435     0.12616167
 C     12  10   8     2.705161211058   116.79892878   176.01361880
 H     14  12  10     1.757372325059   115.64328401     4.70749948
 C     14  12  10     4.397560475400   163.51420528   196.50909922
 H     16  14  12     1.834847016020    81.89660096   191.22599025
 H     16  14  12     1.832801859882   105.25385002    85.20425095
 C     16  14  12     2.816155797394   138.94863413   300.35318275
 H     19  16  14     1.832867471697   108.80447596   331.49507559
 H     19  16  14     1.834382436785   108.81351158   214.59278353
 C     19  16  14     2.833365767526   114.01787759    93.02553678
 H     22  19  16     1.833115976462   108.97561119    44.26325763
 H     22  19  16     1.833955661828   109.10027976   161.58775114
 C     22  19  16     4.403977969222   133.47250307   256.17843174
 H     25  22  19     1.758206130542    81.13857802   241.14784121
 C     25  22  19     2.710228553365   162.62462162    71.19130525
 C     27  25  22     2.670094711499   117.34294204   166.10875307
 H     28  27  25     1.756626334000   119.40245432     5.30406372
 C     28  27  25     2.564796221989   121.23444621   185.14014516
 H     30  28  27     1.758638078957   119.94812771   179.61058941
 C     30  28  27     2.628456443299   120.03700310   359.52699252
 H     32  30  28     1.757576534015   119.89315540   181.21910000
 C     32  30  28     2.611296285226   120.31567962     1.16958495
 C     34  32  30     2.662768758593   120.86176875   359.24695882
 C     34  32  30     4.533910689207    93.57728416   177.92203752
 H     36  34  32     1.816225116963   139.59151559   180.75471419
 H     36  34  32     1.814381289704    93.11732528    55.51541826
 H     36  34  32     1.815251143587    92.95872430   305.82721066
 N     14  12  10     2.426714247129   128.77169963   184.86163341
 N     25  22  19     2.435268300250    34.96869562    55.80410791
 O      5   1   2     2.586142500538    31.84251881     0.20268189
 O     13  12  10     2.473629284349   123.52145447   178.53854554
 O     35  34  32     2.498857407991   118.49129078   178.32657321
 O     34  32  30     2.587340942283   124.93208589   177.68042900
 O     41  25  22     5.370761366052   120.12459580   123.96688217
 Cl    20  19  16     5.610808334552   131.54826709    61.45348093
 Fe    43  13  12     3.637282946220   133.82997044     2.68137200
 H     46  41  25     1.538829100357    90.78760946   346.36845696
 H     46  41  25     1.414439826246   154.76016302   153.01790354

---------------------
BASIS SET INFORMATION
---------------------
There are 6 groups of distinct atoms

 Group   1 Type C   : 11s6p2d1f contracted to 5s3p2d1f pattern {62111/411/11/1}
 Group   2 Type H   : 5s1p contracted to 3s1p pattern {311/1}
 Group   3 Type N   : 11s6p2d1f contracted to 5s3p2d1f pattern {62111/411/11/1}
 Group   4 Type O   : 11s6p2d1f contracted to 5s3p2d1f pattern {62111/411/11/1}
 Group   5 Type Cl  : 14s9p3d1f contracted to 5s5p2d1f pattern {73211/51111/21/1}
 Group   6 Type Fe  : 17s11p7d1f contracted to 6s4p4d1f pattern {842111/6311/4111/1}

Atom   0C    basis set group =>   1
Atom   1H    basis set group =>   2
Atom   2H    basis set group =>   2
Atom   3H    basis set group =>   2
Atom   4C    basis set group =>   1
Atom   5C    basis set group =>   1
Atom   6H    basis set group =>   2
Atom   7C    basis set group =>   1
Atom   8H    basis set group =>   2
Atom   9C    basis set group =>   1
Atom  10H    basis set group =>   2
Atom  11C    basis set group =>   1
Atom  12C    basis set group =>   1
Atom  13C    basis set group =>   1
Atom  14H    basis set group =>   2
Atom  15C    basis set group =>   1
Atom  16H    basis set group =>   2
Atom  17H    basis set group =>   2
Atom  18C    basis set group =>   1
Atom  19H    basis set group =>   2
Atom  20H    basis set group =>   2
Atom  21C    basis set group =>   1
Atom  22H    basis set group =>   2
Atom  23H    basis set group =>   2
Atom  24C    basis set group =>   1
Atom  25H    basis set group =>   2
Atom  26C    basis set group =>   1
Atom  27C    basis set group =>   1
Atom  28H    basis set group =>   2
Atom  29C    basis set group =>   1
Atom  30H    basis set group =>   2
Atom  31C    basis set group =>   1
Atom  32H    basis set group =>   2
Atom  33C    basis set group =>   1
Atom  34C    basis set group =>   1
Atom  35C    basis set group =>   1
Atom  36H    basis set group =>   2
Atom  37H    basis set group =>   2
Atom  38H    basis set group =>   2
Atom  39N    basis set group =>   3
Atom  40N    basis set group =>   3
Atom  41O    basis set group =>   4
Atom  42O    basis set group =>   4
Atom  43O    basis set group =>   4
Atom  44O    basis set group =>   4
Atom  45O    basis set group =>   4
Atom  46Cl   basis set group =>   5
Atom  47Fe   basis set group =>   6
Atom  48H    basis set group =>   2
Atom  49H    basis set group =>   2
---------------------------------
AUXILIARY/J BASIS SET INFORMATION
---------------------------------
There are 6 groups of distinct atoms

 Group   1 Type C   : 12s5p4d2f1g contracted to 6s4p3d1f1g pattern {711111/2111/211/2/1}
 Group   2 Type H   : 5s2p1d contracted to 3s1p1d pattern {311/2/1}
 Group   3 Type N   : 12s5p4d2f1g contracted to 6s4p3d1f1g pattern {711111/2111/211/2/1}
 Group   4 Type O   : 12s5p4d2f1g contracted to 6s4p3d1f1g pattern {711111/2111/211/2/1}
 Group   5 Type Cl  : 14s5p5d2f1g contracted to 8s4p3d1f1g pattern {71111111/2111/311/2/1}
 Group   6 Type Fe  : 19s5p5d3f3g contracted to 8s5p5d2f3g pattern {121111111/11111/11111/21/111}

Atom   0C    basis set group =>   1
Atom   1H    basis set group =>   2
Atom   2H    basis set group =>   2
Atom   3H    basis set group =>   2
Atom   4C    basis set group =>   1
Atom   5C    basis set group =>   1
Atom   6H    basis set group =>   2
Atom   7C    basis set group =>   1
Atom   8H    basis set group =>   2
Atom   9C    basis set group =>   1
Atom  10H    basis set group =>   2
Atom  11C    basis set group =>   1
Atom  12C    basis set group =>   1
Atom  13C    basis set group =>   1
Atom  14H    basis set group =>   2
Atom  15C    basis set group =>   1
Atom  16H    basis set group =>   2
Atom  17H    basis set group =>   2
Atom  18C    basis set group =>   1
Atom  19H    basis set group =>   2
Atom  20H    basis set group =>   2
Atom  21C    basis set group =>   1
Atom  22H    basis set group =>   2
Atom  23H    basis set group =>   2
Atom  24C    basis set group =>   1
Atom  25H    basis set group =>   2
Atom  26C    basis set group =>   1
Atom  27C    basis set group =>   1
Atom  28H    basis set group =>   2
Atom  29C    basis set group =>   1
Atom  30H    basis set group =>   2
Atom  31C    basis set group =>   1
Atom  32H    basis set group =>   2
Atom  33C    basis set group =>   1
Atom  34C    basis set group =>   1
Atom  35C    basis set group =>   1
Atom  36H    basis set group =>   2
Atom  37H    basis set group =>   2
Atom  38H    basis set group =>   2
Atom  39N    basis set group =>   3
Atom  40N    basis set group =>   3
Atom  41O    basis set group =>   4
Atom  42O    basis set group =>   4
Atom  43O    basis set group =>   4
Atom  44O    basis set group =>   4
Atom  45O    basis set group =>   4
Atom  46Cl   basis set group =>   5
Atom  47Fe   basis set group =>   6
Atom  48H    basis set group =>   2
Atom  49H    basis set group =>   2


           ************************************************************
           *        Program running with 16 parallel MPI-processes    *
           *              working on a common directory               *
           ************************************************************
------------------------------------------------------------------------------
                             ORCA STARTUP CALCULATIONS
                           -- RI-GTO INTEGRALS CHOSEN --
------------------------------------------------------------------------------
------------------------------------------------------------------------------
                   ___                                                        
                  /   \      - P O W E R E D   B Y -                         
                 /     \                                                     
                 |  |  |   _    _      __       _____    __    __             
                 |  |  |  | |  | |    /  \     |  _  \  |  |  /  |          
                  \  \/   | |  | |   /    \    | | | |  |  | /  /          
                 / \  \   | |__| |  /  /\  \   | |_| |  |  |/  /          
                |  |  |   |  __  | /  /__\  \  |    /   |      \           
                |  |  |   | |  | | |   __   |  |    \   |  |\   \          
                \     /   | |  | | |  |  |  |  | |\  \  |  | \   \       
                 \___/    |_|  |_| |__|  |__|  |_| \__\ |__|  \__/        
                                                                              
                      - O R C A' S   B I G   F R I E N D -                    
                                      &                                       
                       - I N T E G R A L  F E E D E R -                       
                                                                              
 v1 FN, 2020, v2 2021, v3 2022-2024                                           
------------------------------------------------------------------------------


----------------------
SHARK INTEGRAL PACKAGE
----------------------

Number of atoms                             ...     50
Number of basis functions                   ...   1020
Number of shells                            ...    402
Maximum angular momentum                    ...      3
Integral batch strategy                     ... SHARK/LIBINT Hybrid
RI-J (if used) integral strategy            ... SPLIT-RIJ (Revised 2003 algorithm where possible)
Printlevel                                  ...      1
Contraction scheme used                     ... SEGMENTED contraction
Prescreening option                         ... SCHWARTZ
   Thresh                                   ... 2.500e-11
   Tcut                                     ... 2.500e-12
   Tpresel                                  ... 2.500e-12 
Coulomb Range Separation                    ... NOT USED
Exchange Range Separation                   ... NOT USED
Multipole approximations                    ... NOT USED
Finite Nucleus Model                        ... NOT USED
CABS basis                                  ... NOT available
Auxiliary Coulomb fitting basis             ... AVAILABLE
   # of basis functions in Aux-J            ...   1656
   # of shells in Aux-J                     ...    540
   Maximum angular momentum in Aux-J        ...      4
Auxiliary J/K fitting basis                 ... NOT available
Auxiliary Correlation fitting basis         ... NOT available
Auxiliary 'external' fitting basis          ... NOT available

Checking pre-screening integrals            ... done (  0.0 sec) Dimension = 402
Check shell pair data                       ... done (  0.0 sec)
Shell pair information
Shell pair cut-off parameter TPreSel        ...   2.5e-12
Total number of shell pairs                 ...     81003
Shell pairs after pre-screening             ...     50244
Total number of primitive shell pairs       ...    256703
Primitive shell pairs kept                  ...    101249
          la=0 lb=0:  12821 shell pairs
          la=1 lb=0:  14629 shell pairs
          la=1 lb=1:   4214 shell pairs
          la=2 lb=0:   7195 shell pairs
          la=2 lb=1:   4177 shell pairs
          la=2 lb=2:   1055 shell pairs
          la=3 lb=0:   3166 shell pairs
          la=3 lb=1:   1887 shell pairs
          la=3 lb=2:    897 shell pairs
          la=3 lb=3:    203 shell pairs

Calculating one electron integrals          ... done (  0.1 sec)
done (  0.2 sec)
Calculating Nuclear repulsion               ... done (  0.0 sec) ENN=   3563.609243089803 Eh

Diagonalization of the overlap matrix:
Smallest eigenvalue                        ... 5.199e-06
Time for diagonalization                   ...    0.145 sec
Threshold for overlap eigenvalues          ... 1.000e-07
Number of eigenvalues below threshold      ... 0
Time for construction of square roots      ...    0.173 sec
Total time needed                          ...    0.342 sec

-------------------
DFT GRID GENERATION
-------------------

General Integration Accuracy     IntAcc      ... 4.959
Radial Grid Type                 RadialGrid  ... OptM3 with GC (2021)
Angular Grid (max. ang.)         AngularGrid ... 6 (Lebedev-590)
Angular grid pruning method      GridPruning ... 4 (adaptive)
Weight generation scheme         WeightScheme... mBecke (2022)
Basis function cutoff            BFCut       ... 1.0000e-11
Integration weight cutoff        WCut        ... 1.0000e-14
Partially contracted basis set               ... off
Rotationally invariant grid construction     ... off
Angular grids for H and He will be reduced by one unit
Core-polarized basis detected: some atoms will have their core
                               angular grid increased.

Total number of grid points                  ...   598389
Total number of batches                      ...     9375
Average number of points per batch           ...       63
Average number of grid points per atom       ...    11968

--------------------
COSX GRID GENERATION
--------------------

GRIDX 1
-------
General Integration Accuracy     IntAcc      ... 4.020
Radial Grid Type                 RadialGrid  ... OptM3 with GC (2021)
Angular Grid (max. ang.)         AngularGrid ... 2 (Lebedev-110)
Angular grid pruning method      GridPruning ... 4 (adaptive)
Weight generation scheme         WeightScheme... mBecke (2022)
Basis function cutoff            BFCut       ... 1.0000e-11
Integration weight cutoff        WCut        ... 1.0000e-14
Partially contracted basis set               ... on
Rotationally invariant grid construction     ... off
Angular grids for H and He will be reduced by one unit
Core-polarized basis detected: some atoms will have their core
                               angular grid increased.

Total number of grid points                  ...    68794
Total number of batches                      ...      563
Average number of points per batch           ...      122
Average number of grid points per atom       ...     1376
UseSFitting                                  ... on

GRIDX 2
-------
General Integration Accuracy     IntAcc      ... 4.338
Radial Grid Type                 RadialGrid  ... OptM3 with GC (2021)
Angular Grid (max. ang.)         AngularGrid ... 3 (Lebedev-194)
Angular grid pruning method      GridPruning ... 4 (adaptive)
Weight generation scheme         WeightScheme... mBecke (2022)
Basis function cutoff            BFCut       ... 1.0000e-11
Integration weight cutoff        WCut        ... 1.0000e-14
Partially contracted basis set               ... on
Rotationally invariant grid construction     ... off
Angular grids for H and He will be reduced by one unit
Core-polarized basis detected: some atoms will have their core
                               angular grid increased.

Total number of grid points                  ...   144782
Total number of batches                      ...     1155
Average number of points per batch           ...      125
Average number of grid points per atom       ...     2896
UseSFitting                                  ... on

GRIDX 3
-------
General Integration Accuracy     IntAcc      ... 4.871
Radial Grid Type                 RadialGrid  ... OptM3 with GC (2021)
Angular Grid (max. ang.)         AngularGrid ... 4 (Lebedev-302)
Angular grid pruning method      GridPruning ... 4 (adaptive)
Weight generation scheme         WeightScheme... mBecke (2022)
Basis function cutoff            BFCut       ... 1.0000e-11
Integration weight cutoff        WCut        ... 1.0000e-14
Partially contracted basis set               ... on
Rotationally invariant grid construction     ... off
Angular grids for H and He will be reduced by one unit
Core-polarized basis detected: some atoms will have their core
                               angular grid increased.

Total number of grid points                  ...   271168
Total number of batches                      ...     2140
Average number of points per batch           ...      126
Average number of grid points per atom       ...     5423
UseSFitting                                  ... on
Initializing property integral containers    ... done (  0.0 sec)

SHARK setup successfully completed in  11.8 seconds

Maximum memory used throughout the entire STARTUP-calculation: 184.8 MB


           ************************************************************
           *        Program running with 16 parallel MPI-processes    *
           *              working on a common directory               *
           ************************************************************
-------------------------------------------------------------------------------
                                 ORCA GUESS
                   Start orbitals & Density for SCF / CASSCF
-------------------------------------------------------------------------------

------------
SCF SETTINGS
------------
Hamiltonian:
 Density Functional     Method          .... DFT(GTOs)
 Exchange Functional    Exchange        .... PBE
   PBE kappa parameter   XKappa         ....  0.804000
   PBE mue parameter    XMuePBE         ....  0.219520
 Correlation Functional Correlation     .... PBE
   PBE beta parameter  CBetaPBE         ....  0.066725
 LDA part of GGA corr.  LDAOpt          .... PW91-LDA
 Gradients option       PostSCFGGA      .... off
 Hybrid DFT is turned on
   Fraction HF Exchange ScalHFX         ....  0.250000
   Scaling of DF-GGA-X  ScalDFX         ....  0.750000
   Scaling of DF-GGA-C  ScalDFC         ....  1.000000
   Scaling of DF-LDA-C  ScalLDAC        ....  1.000000
   Perturbative correction              ....  0.000000
   NL short-range parameter             ....  6.900000
 RI-approximation to the Coulomb term is turned on
   Number of AuxJ basis functions       .... 1656
   RIJ-COSX (HFX calculated with COS-X)).... on


General Settings:
 Integral files         IntName         .... UWIQIB-S6
 Hartree-Fock type      HFTyp           .... UHF
 Total Charge           Charge          ....    0
 Multiplicity           Mult            ....    2
 Number of Electrons    NEL             ....  233
 Basis Dimension        Dim             .... 1020
 Nuclear Repulsion      ENuc            ....   3563.6092430898 Eh

Convergence Acceleration:
 AO-DIIS                CNVDIIS         .... on
   Start iteration      DIISMaxIt       ....    12
   Startup error        DIISStart       ....  0.200000
   # of expansion vecs  DIISMaxEq       ....     5
   Bias factor          DIISBfac        ....   1.050
   Max. coefficient     DIISMaxC        ....  10.000
 MO-DIIS                CNVKDIIS        .... off
 Trust-Rad. Augm. Hess. CNVTRAH         .... auto
   Auto Start mean grad. ratio tolernc. ....  1.125000
   Auto Start start iteration           ....    50
   Auto Start num. interpolation iter.  ....    10
   Max. Number of Micro iterations      ....    24
   Max. Number of Macro iterations      .... Maxiter - #DIIS iter
   Number of Davidson start vectors     ....     2
   Converg. threshold    (grad. norm)   ....   1.000e-05
   Grad. Scal. Fac. for Micro threshold ....   0.100
   Minimum threshold for Micro iter.    ....   1.000e-02
   NR start threshold (gradient norm)   ....   1.000e-04
   Initial trust radius                 ....   0.400
   Minimum AH scaling param. (alpha)    ....   1.000
   Maximum AH scaling param. (alpha)    .... 1000.000
   Quad. conv. algorithm                .... NR
   White noise on init. David. guess    .... on
   Maximum white noise                  ....   0.010
   Pseudo random numbers                .... off
   Inactive MOs                         .... canonical
   Orbital update algorithm             .... Taylor
   Preconditioner                       .... Diag
   Full preconditioner red. dimension   ....   250
 SOSCF                  CNVSOSCF        .... on
   Start iteration      SOSCFMaxIt      ....   150
   Startup grad/error   SOSCFStart      ....  0.003300
   Hessian update       SOSCFHessUp     .... L-BFGS
 Level Shifting         CNVShift        .... on
   Level shift para.    LevelShift      ....    0.2500
   Turn off err/grad.   ShiftErr        ....    0.0010
 Zerner damping         CNVZerner       .... off
 Static damping         CNVDamp         .... on
   Fraction old density DampFac         ....    0.7000
   Max. Damping (<1)    DampMax         ....    0.9800
   Min. Damping (>=0)   DampMin         ....    0.0000
   Turn off err/grad.   DampErr         ....    0.1000

SCF Procedure:
 Maximum # iterations   MaxIter         ....   125
 SCF integral mode      SCFMode         .... Direct
   Integral package                     .... SHARK and LIBINT hybrid scheme
 Reset frequency        DirectResetFreq ....    20
 Integral Threshold     Thresh          ....  2.500e-11 Eh
 Primitive CutOff       TCut            ....  2.500e-12 Eh

Convergence Tolerance:
 Convergence Check Mode ConvCheckMode   .... Total+1el-Energy
 Convergence forced     ConvForced      .... 0
 Energy Change          TolE            ....  1.000e-08 Eh
 1-El. energy change                    ....  1.000e-05 Eh
 Orbital Gradient       TolG            ....  1.000e-05
 Orbital Rotation angle TolX            ....  1.000e-05
 DIIS Error             TolErr          ....  5.000e-07

------------------------------
INITIAL GUESS: MODEL POTENTIAL
------------------------------
Loading Hartree-Fock densities                     ... done
Calculating cut-offs                               ... done
Initializing the effective Hamiltonian             ... done
Setting up the integral package (SHARK)            ... done
done (   0.4 sec)
Making the grid                                    ... done (   0.5 sec)
Mapping shells                                     ... done
Starting the XC term evaluation                    ... done (   0.3 sec)
  promolecular density results
     # of electrons  =    232.986848058
     EX              =   -239.798377011
     EC              =     -8.302416007
     EX+EC           =   -248.100793018
done (   0.1 sec)
done (   0.2 sec)
Back transforming the eigenvectors                 ... done (   0.1 sec)
done
                      ------------------
                      INITIAL GUESS DONE (   1.8 sec)
                      ------------------
             **** ENERGY FILE WAS UPDATED (UWIQIB-S6.en.tmp) ****
Finished Guess after   2.4 sec
Maximum memory used throughout the entire GUESS-calculation: 95.2 MB


           ************************************************************
           *        Program running with 16 parallel MPI-processes    *
           *              working on a common directory               *
           ************************************************************

-------------------------------------------------------------------------------------------
                                      ORCA LEAN-SCF
                              memory conserving SCF solver
-------------------------------------------------------------------------------------------

----------------------------------------D-I-I-S--------------------------------------------
Iteration    Energy (Eh)           Delta-E    RMSDP     MaxDP     DIISErr   Damp  Time(sec)
-------------------------------------------------------------------------------------------
               ***  Starting incremental Fock matrix formation  ***
    1    -2944.1627433451249090     0.00e+00  7.86e-04  9.05e-02  1.91e-01  0.700  26.6
Warning: op=0 Small HOMO/LUMO gap (  -0.044) - skipping pre-diagonalization
         Will do a full diagonalization
    2    -2944.5070245456836346    -3.44e-01  6.98e-04  4.36e-02  9.50e-02  0.700  14.4
                               ***Turning on AO-DIIS***
    3    -2944.7072178247181000    -2.00e-01  2.54e-04  1.68e-02  4.07e-02  0.700  12.8
    4    -2944.8172792258837944    -1.10e-01  5.35e-04  4.28e-02  6.79e-02  0.000  11.8
    5    -2945.1102416776675454    -2.93e-01  1.45e-04  1.02e-02  4.69e-02  0.000  12.2
    6    -2945.1247744178035646    -1.45e-02  8.00e-05  9.00e-03  1.64e-02  0.000  10.7
    7    -2945.1279315011524886    -3.16e-03  3.54e-05  4.44e-03  3.42e-03  0.000  10.8
                              *** Initializing SOSCF ***
---------------------------------------S-O-S-C-F--------------------------------------
Iteration    Energy (Eh)           Delta-E    RMSDP     MaxDP     MaxGrad    Time(sec)
--------------------------------------------------------------------------------------
    8    -2945.1288843667744004    -9.53e-04  2.39e-05  4.44e-03  3.21e-03    11.2
               *** Restarting incremental Fock matrix formation ***
    9    -2945.1294539664877448    -5.70e-04  4.91e-05  1.07e-02  4.58e-03    25.2
               *** Scaled step length from 0.235819 to 0.200000 ***
   10    -2945.1300782360640369    -6.24e-04  1.61e-04  3.18e-02  6.60e-03    17.6
   11    -2945.1310021454955859    -9.24e-04  7.22e-05  6.69e-03  5.55e-03    19.2
   12    -2945.1323082600683847    -1.31e-03  1.69e-04  2.48e-02  4.96e-03    17.9
               *** Scaled step length from 0.201199 to 0.200000 ***
   13    -2945.1341794383524757    -1.87e-03  1.60e-04  2.59e-02  4.25e-03    19.8
   14    -2945.1345667819823575    -3.87e-04  1.03e-04  1.42e-02  5.30e-03    18.5
   15    -2945.1356127817871311    -1.05e-03  2.85e-05  7.05e-03  1.42e-03    18.1
   16    -2945.1357591335145116    -1.46e-04  3.90e-05  8.29e-03  7.68e-04    16.2
   17    -2945.1358126922887095    -5.36e-05  1.36e-05  1.30e-03  6.74e-04    17.0
   18    -2945.1358289005420374    -1.62e-05  1.12e-05  9.96e-04  3.60e-04    15.1
   19    -2945.1358422727462312    -1.34e-05  6.28e-06  1.02e-03  2.48e-04    14.5
   20    -2945.1358481416655195    -5.87e-06  5.21e-06  8.32e-04  1.81e-04    14.3
   21    -2945.1358498337103811    -1.69e-06  6.43e-06  8.66e-04  1.22e-04    13.3
   22    -2945.1358520050425795    -2.17e-06  8.53e-06  1.16e-03  1.30e-04    13.2
   23    -2945.1358544316635744    -2.43e-06  1.18e-05  1.32e-03  1.73e-04    13.4
   24    -2945.1358582460006801    -3.81e-06  3.84e-05  5.12e-03  2.24e-04    13.1
   25    -2945.1358733459119321    -1.51e-05  9.48e-05  1.61e-02  4.19e-04    15.8
   26    -2945.1358911181750955    -1.78e-05  2.16e-05  2.97e-03  8.90e-04    17.7
   27    -2945.1359303799144982    -3.93e-05  6.04e-05  1.51e-02  6.60e-04    14.5
   28    -2945.1360014742394924    -7.11e-05  1.09e-04  2.91e-02  5.11e-04    16.4
               *** Restarting incremental Fock matrix formation ***
   29    -2945.1360274531507457    -2.60e-05  4.73e-05  7.56e-03  7.25e-04    25.7
   30    -2945.1360641632354600    -3.67e-05  3.06e-05  4.97e-03  6.97e-04    16.1
   31    -2945.1361117082960845    -4.75e-05  4.58e-05  1.11e-02  4.17e-04    15.2
   32    -2945.1361696200683582    -5.79e-05  8.75e-05  2.42e-02  4.53e-04    16.5
   33    -2945.1362135450799542    -4.39e-05  3.75e-05  6.71e-03  8.80e-04    17.7
   34    -2945.1362566518564563    -4.31e-05  1.58e-05  2.44e-03  5.17e-04    16.9
   35    -2945.1362809932788878    -2.43e-05  2.03e-05  4.28e-03  3.54e-04    14.5
   36    -2945.1362946653662220    -1.37e-05  1.32e-05  2.28e-03  1.78e-04    14.9
   37    -2945.1363012417532445    -6.58e-06  7.54e-06  1.16e-03  1.40e-04    14.2
   38    -2945.1363050085255963    -3.77e-06  7.50e-06  1.74e-03  1.03e-04    13.6
   39    -2945.1363066466701639    -1.64e-06  3.90e-06  4.46e-04  8.01e-05    13.1
   40    -2945.1363079256589117    -1.28e-06  7.13e-06  1.05e-03  7.25e-05    12.0
   41    -2945.1363088496254932    -9.24e-07  4.23e-06  6.40e-04  7.95e-05    12.6
   42    -2945.1363094697426277    -6.20e-07  8.12e-06  1.36e-03  8.62e-05    11.8
   43    -2945.1363102049244844    -7.35e-07  9.24e-06  1.54e-03  6.40e-05    12.3
   44    -2945.1363112298804481    -1.02e-06  7.88e-06  1.47e-03  7.22e-05    13.7
   45    -2945.1363120245969185    -7.95e-07  1.47e-05  2.51e-03  9.05e-05    13.4
   46    -2945.1363132027836400    -1.18e-06  9.76e-06  2.65e-03  1.05e-04    13.7
   47    -2945.1363142835598410    -1.08e-06  1.10e-05  2.76e-03  1.10e-04    14.2
   48    -2945.1363154367445532    -1.15e-06  1.26e-05  3.23e-03  1.00e-04    13.9
               *** Restarting incremental Fock matrix formation ***
   49    -2945.1363173093213845    -1.87e-06  4.10e-05  8.83e-03  1.13e-04    25.6
   50    -2945.1363216925110464    -4.38e-06  3.10e-05  8.83e-03  1.31e-04    16.0

       ******************************************************************************
       ***                                                                        ***
       ***                               Auto-TRAH                                ***
       ***                               ---------                                ***
       *** the maximum gradient error decreased on average only by a factor   0.9 ***
       *** during the last  10 iterations                                         ***
       ***                                                                        ***
       ***               Leaving SCF to start the TRAH-SCF procedure              ***
       ***                                                                        ***
       ******************************************************************************

 --------------------------------------------------------------------------------------------
   Iter.        energy            ||Error||_2        Shift      TRadius  Mac/Mic        Rej.
 --------------------------------------------------------------------------------------------
    0      -2945.136328337327     1.459073e-03                     0.400 (TRAH MAcro)   No
    0     dE    -1.074380e-06     7.429944e-04    -1.0744e-06      0.001 (TRAH MIcro)
    0     dE    -1.498100e-06     7.256198e-04    -1.4981e-06      0.002 (TRAH MIcro)
    0     dE    -1.996877e-06     4.147845e-04    -1.9969e-06      0.003 (TRAH MIcro)
    0     dE    -2.125269e-06     2.774284e-04    -2.1252e-06      0.004 (TRAH MIcro)
    0     dE    -2.233220e-06     3.171190e-04    -2.2332e-06      0.004 (TRAH MIcro)
    0     dE    -2.315498e-06     3.124415e-04    -2.3154e-06      0.005 (TRAH MIcro)
    0     dE    -2.469035e-06     4.127853e-04    -2.4689e-06      0.006 (TRAH MIcro)
    0     dE    -2.656375e-06     5.546813e-04    -2.6562e-06      0.008 (TRAH MIcro)
    0     dE    -2.888574e-06     4.649996e-04    -2.8882e-06      0.011 (TRAH MIcro)
    0     dE    -3.051503e-06     3.519380e-04    -3.0509e-06      0.014 (TRAH MIcro)
    0     dE    -3.145462e-06     2.805999e-04    -3.1447e-06      0.015 (TRAH MIcro)
    0     dE    -3.217661e-06     2.316304e-04    -3.2168e-06      0.016 (TRAH MIcro)
    0     dE    -3.260009e-06     1.990900e-04    -3.2591e-06      0.017 (TRAH MIcro)
    0     dE    -3.300763e-06     1.956420e-04    -3.2997e-06      0.018 (TRAH MIcro)
    0     dE    -3.344574e-06     2.538971e-04    -3.3434e-06      0.019 (TRAH MIcro)
    0     dE    -3.423666e-06     2.366508e-04    -3.4223e-06      0.020 (TRAH MIcro)
    0     dE    -3.492214e-06     2.457614e-04    -3.4906e-06      0.021 (TRAH MIcro)
    0     dE    -3.593798e-06     3.252430e-04    -3.5918e-06      0.024 (TRAH MIcro)
    0     dE    -3.756270e-06     4.157541e-04    -3.7533e-06      0.028 (TRAH MIcro)
    0     dE    -4.145381e-06     6.893333e-04    -4.1390e-06      0.039 (TRAH MIcro)
    0     dE    -4.769360e-06     7.220938e-04    -4.7530e-06      0.059 (TRAH MIcro)
    0     dE    -5.180314e-06     5.692091e-04    -5.1538e-06      0.072 (TRAH MIcro)
    0     dE    -5.570322e-06     5.450865e-04    -5.5312e-06      0.084 (TRAH MIcro)
    1      -2945.136332475572     8.348043e-04                     0.400 (TRAH MAcro)   No
    1     dE    -2.822881e-07     4.939785e-04    -2.8229e-07      0.001 (TRAH MIcro)
    1     dE    -4.366922e-07     4.452577e-04    -4.3669e-07      0.001 (TRAH MIcro)
    1     dE    -6.276376e-07     5.642806e-04    -6.2763e-07      0.002 (TRAH MIcro)
    1     dE    -9.770546e-07     6.900987e-04    -9.7703e-07      0.005 (TRAH MIcro)
    1     dE    -1.460827e-06     6.186094e-04    -1.4607e-06      0.009 (TRAH MIcro)
    1     dE    -1.869021e-06     5.391506e-04    -1.8688e-06      0.012 (TRAH MIcro)
    1     dE    -2.148683e-06     5.276781e-04    -2.1482e-06      0.015 (TRAH MIcro)
    1     dE    -2.369755e-06     4.228414e-04    -2.3691e-06      0.017 (TRAH MIcro)
    1     dE    -2.504488e-06     3.204622e-04    -2.5037e-06      0.018 (TRAH MIcro)
    1     dE    -2.596380e-06     2.931657e-04    -2.5955e-06      0.019 (TRAH MIcro)
    1     dE    -2.685070e-06     2.507648e-04    -2.6840e-06      0.020 (TRAH MIcro)
    1     dE    -2.760438e-06     2.811014e-04    -2.7593e-06      0.021 (TRAH MIcro)
    1     dE    -2.854361e-06     3.113261e-04    -2.8530e-06      0.022 (TRAH MIcro)
    1     dE    -2.943369e-06     2.758545e-04    -2.9418e-06      0.023 (TRAH MIcro)
    1     dE    -3.030601e-06     3.011176e-04    -3.0288e-06      0.024 (TRAH MIcro)
    1     dE    -3.161164e-06     3.968895e-04    -3.1590e-06      0.026 (TRAH MIcro)
[...]
120:   1525.41   0.035150  177.64  0.007191  (-0.021346  0.010794  0.081356)
121:   1610.52   0.022651  114.47  0.004389  (-0.045438 -0.047935 -0.005151)
122:   1612.45   0.008415   42.53  0.001629  ( 0.010971 -0.014732  0.035934)
123:   1660.89   0.006701   33.86  0.001259  (-0.008227  0.003876  0.034298)
124:   1665.86   0.005211   26.33  0.000976  (-0.021855 -0.022290 -0.001295)
125:   1667.27   0.010692   54.04  0.002001  ( 0.015077 -0.010843 -0.040699)
126:   1684.79   0.129903  656.48  0.024061  ( 0.105591  0.112932  0.012576)
127:   1695.64   0.068319  345.26  0.012573  (-0.060421  0.046822  0.082039)
128:   3011.32   0.005662   28.62  0.000587  (-0.014857 -0.018348 -0.005426)
129:   3011.57   0.022555  113.98  0.002337  ( 0.019524 -0.011283 -0.042763)
130:   3017.05   0.001724    8.71  0.000178  ( 0.011122  0.007377 -0.000415)
131:   3017.50   0.013561   68.53  0.001402  (-0.024746  0.023436  0.015519)
132:   3053.20   0.000624    3.15  0.000064  ( 0.005178 -0.004163 -0.004428)
133:   3064.78   0.004624   23.37  0.000471  (-0.014795 -0.015747 -0.001986)
134:   3071.93   0.002341   11.83  0.000238  (-0.011840 -0.009702 -0.001860)
135:   3072.19   0.010982   55.50  0.001115  (-0.021231  0.022679 -0.012264)
136:   3073.21   0.007823   39.53  0.000794  (-0.003637  0.000248  0.027948)
137:   3090.30   0.006547   33.09  0.000661  ( 0.014694  0.019718  0.007513)
138:   3090.77   0.008710   44.01  0.000879  (-0.014540  0.003555  0.025599)
139:   3112.44   0.003260   16.48  0.000327  ( 0.012679 -0.011332 -0.006141)
140:   3151.30   0.002584   13.06  0.000256  ( 0.008928  0.008464 -0.010225)
141:   3151.42   0.004342   21.95  0.000430  (-0.002542 -0.004434 -0.020097)
142:   3184.09   0.001022    5.17  0.000100  (-0.007260 -0.006461  0.002394)
143:   3184.16   0.000733    3.70  0.000072  ( 0.001047  0.003930  0.007435)
144:   3206.97   0.002520   12.74  0.000245  (-0.009367 -0.009524  0.008173)
145:   3207.03   0.002724   13.77  0.000265  ( 0.004674  0.005514  0.014588)
146:   3221.65   0.002948   14.90  0.000286  ( 0.008291  0.014063  0.004363)
147:   3221.73   0.001698    8.58  0.000165  (-0.011195 -0.000415  0.006246)
148:   3711.99   0.004401   22.24  0.000370  ( 0.008236 -0.008346 -0.015248)
149:   3773.06   0.026131  132.05  0.002161  (-0.031896 -0.033692 -0.002957)

* The epsilon (eps) is given for a Dirac delta lineshape.
** The dipole moment derivative (T) already includes vibrational overlap.

The first frequency considered to be a vibration is 6
The total number of vibrations considered is 144


--------------------------
THERMOCHEMISTRY AT 298.15K
--------------------------

Temperature         ...   298.15 K
Pressure            ...     1.00 atm
Total Mass          ...   449.70 AMU
Quasi RRHO          ...     True
Cut-Off Frequency   ...     1.00 cm^-1

Throughout the following assumptions are being made:
  (1) The electronic state is orbitally nondegenerate
      but the spin degeneracy is treated
  (2) There are no thermally accessible electronically excited states
  (3) Hindered rotations indicated by low frequency modes are not
      treated as such but are treated as vibrations and this may
      cause some error
  (4) All equations used are the standard statistical mechanics
      equations for an ideal gas
  (5) All vibrations are strictly harmonic

freq.      28.40  E(vib)   ...       0.55 
freq.      34.84  E(vib)   ...       0.54 
freq.      41.97  E(vib)   ...       0.53 
freq.      53.58  E(vib)   ...       0.52 
freq.      82.32  E(vib)   ...       0.48 
freq.      85.39  E(vib)   ...       0.48 
freq.     100.96  E(vib)   ...       0.46 
freq.     109.24  E(vib)   ...       0.45 
freq.     112.32  E(vib)   ...       0.45 
freq.     118.34  E(vib)   ...       0.44 
freq.     130.94  E(vib)   ...       0.42 
freq.     143.57  E(vib)   ...       0.41 
freq.     147.10  E(vib)   ...       0.41 
freq.     159.95  E(vib)   ...       0.39 
freq.     190.82  E(vib)   ...       0.36 
freq.     197.93  E(vib)   ...       0.35 
freq.     228.09  E(vib)   ...       0.33 
freq.     235.98  E(vib)   ...       0.32 
freq.     237.41  E(vib)   ...       0.32 
freq.     241.08  E(vib)   ...       0.31 
freq.     250.46  E(vib)   ...       0.30 
freq.     255.41  E(vib)   ...       0.30 
freq.     257.80  E(vib)   ...       0.30 
freq.     276.16  E(vib)   ...       0.28 
freq.     289.46  E(vib)   ...       0.27 
freq.     304.36  E(vib)   ...       0.26 
freq.     308.23  E(vib)   ...       0.26 
freq.     329.22  E(vib)   ...       0.24 
freq.     332.57  E(vib)   ...       0.24 
freq.     354.56  E(vib)   ...       0.22 
freq.     362.78  E(vib)   ...       0.22 
freq.     380.43  E(vib)   ...       0.21 
freq.     391.04  E(vib)   ...       0.20 
freq.     406.92  E(vib)   ...       0.19 
freq.     408.14  E(vib)   ...       0.19 
freq.     425.29  E(vib)   ...       0.18 
freq.     446.31  E(vib)   ...       0.17 
freq.     454.35  E(vib)   ...       0.16 
freq.     464.66  E(vib)   ...       0.16 
freq.     518.37  E(vib)   ...       0.13 
freq.     554.10  E(vib)   ...       0.12 
freq.     555.41  E(vib)   ...       0.12 
freq.     557.01  E(vib)   ...       0.12 
freq.     565.95  E(vib)   ...       0.11 
freq.     579.60  E(vib)   ...       0.11 
freq.     592.23  E(vib)   ...       0.10 
freq.     593.01  E(vib)   ...       0.10 
freq.     630.17  E(vib)   ...       0.09 
freq.     637.55  E(vib)   ...       0.09 
freq.     643.37  E(vib)   ...       0.09 
freq.     647.11  E(vib)   ...       0.09 
freq.     657.63  E(vib)   ...       0.08 
freq.     708.59  E(vib)   ...       0.07 
freq.     748.77  E(vib)   ...       0.06 
freq.     749.51  E(vib)   ...       0.06 
freq.     760.44  E(vib)   ...       0.06 
freq.     767.62  E(vib)   ...       0.06 
freq.     805.45  E(vib)   ...       0.05 
freq.     806.68  E(vib)   ...       0.05 
freq.     880.74  E(vib)   ...       0.04 
freq.     881.41  E(vib)   ...       0.04 
freq.     882.63  E(vib)   ...       0.04 
freq.     882.78  E(vib)   ...       0.04 
freq.     895.77  E(vib)   ...       0.03 
freq.     898.76  E(vib)   ...       0.03 
freq.     920.59  E(vib)   ...       0.03 
freq.     920.64  E(vib)   ...       0.03 
freq.     964.86  E(vib)   ...       0.03 
freq.     990.86  E(vib)   ...       0.02 
freq.     993.42  E(vib)   ...       0.02 
freq.    1008.66  E(vib)   ...       0.02 
freq.    1041.65  E(vib)   ...       0.02 
freq.    1056.25  E(vib)   ...       0.02 
freq.    1110.83  E(vib)   ...       0.01 
freq.    1113.64  E(vib)   ...       0.01 
freq.    1118.64  E(vib)   ...       0.01 
freq.    1139.05  E(vib)   ...       0.01 
freq.    1148.87  E(vib)   ...       0.01 
freq.    1158.23  E(vib)   ...       0.01 
freq.    1170.06  E(vib)   ...       0.01 
freq.    1173.50  E(vib)   ...       0.01 
freq.    1173.54  E(vib)   ...       0.01 
freq.    1198.15  E(vib)   ...       0.01 
freq.    1199.91  E(vib)   ...       0.01 
freq.    1215.39  E(vib)   ...       0.01 
freq.    1220.68  E(vib)   ...       0.01 
freq.    1221.71  E(vib)   ...       0.01 
freq.    1263.91  E(vib)   ...       0.01 
freq.    1271.54  E(vib)   ...       0.01 
freq.    1285.96  E(vib)   ...       0.01 
freq.    1299.69  E(vib)   ...       0.01 
freq.    1301.05  E(vib)   ...       0.01 
freq.    1311.59  E(vib)   ...       0.01 
freq.    1372.45  E(vib)   ...       0.01 
freq.    1381.69  E(vib)   ...       0.01 
freq.    1386.60  E(vib)   ...       0.00 
freq.    1392.85  E(vib)   ...       0.00 
freq.    1401.82  E(vib)   ...       0.00 
freq.    1411.49  E(vib)   ...       0.00 
freq.    1418.87  E(vib)   ...       0.00 
freq.    1433.19  E(vib)   ...       0.00 
freq.    1441.67  E(vib)   ...       0.00 
freq.    1465.28  E(vib)   ...       0.00 
freq.    1470.62  E(vib)   ...       0.00 
freq.    1471.77  E(vib)   ...       0.00 
freq.    1475.78  E(vib)   ...       0.00 
freq.    1485.34  E(vib)   ...       0.00 
freq.    1486.59  E(vib)   ...       0.00 
freq.    1489.46  E(vib)   ...       0.00 
freq.    1491.49  E(vib)   ...       0.00 
freq.    1497.64  E(vib)   ...       0.00 
freq.    1499.35  E(vib)   ...       0.00 
freq.    1502.60  E(vib)   ...       0.00 
freq.    1516.60  E(vib)   ...       0.00 
freq.    1525.41  E(vib)   ...       0.00 
freq.    1610.52  E(vib)   ...       0.00 
freq.    1612.45  E(vib)   ...       0.00 
freq.    1660.89  E(vib)   ...       0.00 
freq.    1665.86  E(vib)   ...       0.00 
freq.    1667.27  E(vib)   ...       0.00 
freq.    1684.79  E(vib)   ...       0.00 
freq.    1695.64  E(vib)   ...       0.00 
freq.    3011.32  E(vib)   ...       0.00 
freq.    3011.57  E(vib)   ...       0.00 
freq.    3017.05  E(vib)   ...       0.00 
freq.    3017.50  E(vib)   ...       0.00 
freq.    3053.20  E(vib)   ...       0.00 
freq.    3064.78  E(vib)   ...       0.00 
freq.    3071.93  E(vib)   ...       0.00 
freq.    3072.19  E(vib)   ...       0.00 
freq.    3073.21  E(vib)   ...       0.00 
freq.    3090.30  E(vib)   ...       0.00 
freq.    3090.77  E(vib)   ...       0.00 
freq.    3112.44  E(vib)   ...       0.00 
freq.    3151.30  E(vib)   ...       0.00 
freq.    3151.42  E(vib)   ...       0.00 
freq.    3184.09  E(vib)   ...       0.00 
freq.    3184.16  E(vib)   ...       0.00 
freq.    3206.97  E(vib)   ...       0.00 
freq.    3207.03  E(vib)   ...       0.00 
freq.    3221.65  E(vib)   ...       0.00 
freq.    3221.73  E(vib)   ...       0.00 
freq.    3711.99  E(vib)   ...       0.00 
freq.    3773.06  E(vib)   ...       0.00 

------------
INNER ENERGY
------------

The inner energy is: U= E(el) + E(ZPE) + E(vib) + E(rot) + E(trans)
    E(el)   - is the total energy from the electronic structure calculation
              = E(kin-el) + E(nuc-el) + E(el-el) + E(nuc-nuc)
    E(ZPE)  - the the zero temperature vibrational energy from the frequency calculation
    E(vib)  - the the finite temperature correction to E(ZPE) due to population
              of excited vibrational states
    E(rot)  - is the rotational thermal energy
    E(trans)- is the translational thermal energy

Summary of contributions to the inner energy U:
Electronic energy                ...  -2945.60328253 Eh
Zero point energy                ...      0.39432257 Eh     247.44 kcal/mol
Thermal vibrational correction   ...      0.02444212 Eh      15.34 kcal/mol
Thermal rotational correction    ...      0.00141627 Eh       0.89 kcal/mol
Thermal translational correction ...      0.00141627 Eh       0.89 kcal/mol
-----------------------------------------------------------------------
Total thermal energy                  -2945.18168529 Eh


Summary of corrections to the electronic energy:
(perhaps to be used in another calculation)
Total thermal correction                  0.02727467 Eh      17.12 kcal/mol
Non-thermal (ZPE) correction              0.39432257 Eh     247.44 kcal/mol
-----------------------------------------------------------------------
Total correction                          0.42159724 Eh     264.56 kcal/mol


--------
ENTHALPY
--------

The enthalpy is H = U + kB*T
                kB is Boltzmann's constant
Total thermal energy              ...  -2945.18168529 Eh 
Thermal Enthalpy correction       ...      0.00094421 Eh       0.59 kcal/mol
-----------------------------------------------------------------------
Total Enthalpy                    ...  -2945.18074108 Eh


Note: Only C1 symmetry has been detected, increase convergence thresholds 
      if your molecule has a higher symmetry. Symmetry factor of 1.0 is   
      used for the rotational entropy correction. 
 

Note: Rotational entropy computed according to Herzberg 
Infrared and Raman Spectra, Chapter V,1, Van Nostrand Reinhold, 1945 
Point Group:  C1, Symmetry Number:   1  
Rotational constants in cm-1:     0.007289     0.004826     0.003289 

Vibrational entropy computed according to the QRRHO of S. Grimme
Chem.Eur.J. 2012 18 9955 using a reference frequency of 100.0 cm-1


-------
ENTROPY
-------

The entropy contributions are T*S = T*(S(el)+S(vib)+S(rot)+S(trans))
     S(el)   - electronic entropy
     S(vib)  - vibrational entropy
     S(rot)  - rotational entropy
     S(trans)- translational entropy
The entropies will be listed as multiplied by the temperature to get
units of energy

Electronic entropy                ...      0.00065446 Eh      0.41 kcal/mol
Vibrational entropy               ...      0.04282227 Eh     26.87 kcal/mol
Rotational entropy                ...      0.01705115 Eh     10.70 kcal/mol
Translational entropy             ...      0.02100047 Eh     13.18 kcal/mol
-----------------------------------------------------------------------
Final entropy term                ...      0.08152834 Eh     51.16 kcal/mol

In case the symmetry of your molecule has not been determined correctly
or in case you have a reason to use a different symmetry number we print 
out the resulting rotational entropy values for sn=1,12:

 non-linear molecules -----------------------------------
|  sn= 1 | S(rot)=       0.01705115 Eh     10.70 kcal/mol|
|  sn= 2 | S(rot)=       0.01639669 Eh     10.29 kcal/mol|
|  sn= 3 | S(rot)=       0.01601386 Eh     10.05 kcal/mol|
|  sn= 4 | S(rot)=       0.01574224 Eh      9.88 kcal/mol|
|  sn= 5 | S(rot)=       0.01553155 Eh      9.75 kcal/mol|
|  sn= 6 | S(rot)=       0.01535940 Eh      9.64 kcal/mol|
|  sn= 7 | S(rot)=       0.01521386 Eh      9.55 kcal/mol|
|  sn= 8 | S(rot)=       0.01508778 Eh      9.47 kcal/mol|
|  sn= 9 | S(rot)=       0.01497657 Eh      9.40 kcal/mol|
|  sn=10 | S(rot)=       0.01487709 Eh      9.34 kcal/mol|
|  sn=11 | S(rot)=       0.01478710 Eh      9.28 kcal/mol|
|  sn=12 | S(rot)=       0.01470495 Eh      9.23 kcal/mol|
 linear molecules ---------------------------------------
|  Dinfh | S(rot)=       0.01072375 Eh      6.73 kcal/mol|
|  Cinfv | S(rot)=       0.01137821 Eh      7.14 kcal/mol|
 --------------------------------------------------------


-------------------
GIBBS FREE ENERGY
-------------------

The Gibbs free energy is G = H - T*S

Total enthalpy                    ...  -2945.18074108 Eh 
Total entropy correction          ...     -0.08152834 Eh    -51.16 kcal/mol
-----------------------------------------------------------------------
Final Gibbs free energy         ...  -2945.26226943 Eh

For completeness - the Gibbs free energy minus the electronic energy
G-E(el)                           ...      0.34101311 Eh    213.99 kcal/mol


Maximum memory used throughout the entire PROP-calculation: 1416.6 MB

--------------------------------
SUGGESTED CITATIONS FOR THIS RUN
--------------------------------

Below you find a list of papers that are relevant to this ORCA run
We neither can nor want to force you to cite these papers, but we appreciate if you do
You receive ORCA, which is the product of decades of hard work by many enthusiastic individuals, for free
The only thing we kindly ask in return is that you cite our papers,
We deeply appreciate it, if you show your appreciation for ORCA by not just citing the generic ORCA reference.

Please note that relegating all ORCA citations to the supporting information does *not* help us.
SI sections are not indexed - citations you put there will not count into any citation statistics
But we need these citations in order to attract the funding resources that allow us to do what we are doing

Therefore, if you are a happy ORCA user, please consider citing a few of the papers listed below in the main body of your paper

In addition to the list printed below, the program has created the file UWIQIB-S6.bibtex that contains the list in bibtex format
You can import this file easily into all common literature databanks and citation aid programs


List of essential papers. We consider these as the minimum necessary citations

  1. Neese,F.
     Software update: the ORCA program system, version 5.0
     WIRES Comput. Molec. Sci., 2022 12(1)e1606
     doi.org/10.1002/wcms.1606

List of papers to cite with high priority. The work reported in these papers was absolutely
necessary for this run to complete.
Our perspective: the developers of density functionals and basis sets usually get cited in chemistry papers
Good! But without the algorithms to do something with them, the functionals or basis sets would not do anything.
Hence, in our opinion, the algorithm design and method developments papers are equally worthy of getting cited

  1. Neese,F.
     An improvement of the resolution of the identity approximation for the formation of the Coulomb matrix
     J. Comp. Chem., 2003 24(14)1740-1747
     doi.org/10.1002/jcc.10318
  2. Neese,F.; Wennmohs,F.; Hansen,A.; Becker,U.
     Efficient, approximate and parallel Hartree-Fock and hybrid DFT calculations. A 'chain-of-spheres' algorithm for the Hartree-Fock exchange
     Chem. Phys., 2009 356(1-3)98-109
     doi.org/10.1016/j.chemphys.2008.10.036
  3. Bykov,D.; Petrenko,T.; Izsak,R.; Kossmann,S.; Becker,U.; Valeev,E.; Neese,F.
     Efficient implementation of the analytic second derivatives of Hartree-Fock and hybrid DFT energies: a detailed analysis of different approximations
     Molec. Phys., 2015 113 1961-1977
     doi.org/10.1080/00268976.2015.1025114
  4. Helmich-Paris,B.; de Souza,B.; Neese,F.; Izsák,R.
     An improved chain of spheres for exchange algorithm
     J. Chem. Phys., 2021 155 104109
     doi.org/doi: 10.1063/5.0058766.
  5. Helmich-Paris,B.
     A trust-region augmented Hessian implementation for restricted and unrestricted Hartree–Fock and Kohn–Sham methods
     J. Chem. Phys., 2021 154 164104
     doi.org/10.1063/5.0040798
  6. Neese,F.
     The SHARK Integral Generation and Digestion System
     J. Comp. Chem., 2022  1-16
     doi.org/10.1002/jcc.26942

List of suggested additional citations. These are papers that are important in the 'surrounding' of 
of this run, or papers that preceded the highly important papers. If you like your results we are grateful for a citation.

  1. Izsak,R.; Neese,F.
     An overlap fitted chain of spheres exchange method
     J. Chem. Phys., 2011 135 144105
     doi.org/10.1063/1.3646921
  2. Izsak,R.; Hansen,A.; Neese,F.
     The resolution of identity and chain of spheres approximations for the LPNO-CCSD singles Fock term
     Molec. Phys., 2012 110 2413-2417
     doi.org/10.1080/00268976.2012.687466
  3. Neese,F.
     The ORCA program system
     WIRES Comput. Molec. Sci., 2012 2(1)73-78
     doi.org/10.1002/wcms.81
  4. Izsak,R.; Neese,F.; Klopper,W.
     Robust fitting techniques in the chain of spheres approximation to the Fock exchange: The role of the complementary space
     J. Chem. Phys., 2013 139 
     doi.org/10.1063/1.4819264
  5. Neese,F.
     Software update: the ORCA program system, version 4.0
     WIRES Comput. Molec. Sci., 2018 8(1)1-6
     doi.org/10.1002/wcms.1327
  6. Neese,F.; Wennmohs,F.; Becker,U.; Riplinger,C.
     The ORCA quantum chemistry program package
     J. Chem. Phys., 2020 152 Art. No. L224108
     doi.org/10.1063/5.0004608

List of optional additional citations

  1. Neese,F.
     Approximate second-order SCF convergence for spin unrestricted wavefunctions
     Chem. Phys. Lett., 2000 325(1-3)93-98
     doi.org/10.1016/s0009-2614(00)00662-x

Timings for individual modules:

Sum of individual times          ...    26329.532 sec (= 438.826 min)
Startup calculation              ...      264.070 sec (=   4.401 min)   1.0 %
SCF iterations                   ...     9685.413 sec (= 161.424 min)  36.8 %
Property integrals               ...     3334.740 sec (=  55.579 min)  12.7 %
SCF Response                     ...    10894.534 sec (= 181.576 min)  41.4 %
Property calculations            ...      982.373 sec (=  16.373 min)   3.7 %
SCF Gradient evaluation          ...     1167.517 sec (=  19.459 min)   4.4 %
Geometry relaxation              ...        0.886 sec (=   0.015 min)   0.0 %
                             ****ORCA TERMINATED NORMALLY****
TOTAL RUN TIME: 0 days 7 hours 19 minutes 53 seconds 767 msec
