
                                 *****************
                                 * O   R   C   A *
                                 *****************

                                            #,                                       
                                            ###                                      
                                            ####                                     
                                            #####                                    
                                            ######                                   
                                           ########,                                 
                                     ,,################,,,,,                         
                               ,,#################################,,                 
                          ,,##########################################,,             
                       ,#########################################, ''#####,          
                    ,#############################################,,   '####,        
                  ,##################################################,,,,####,       
                ,###########''''           ''''###############################       
              ,#####''   ,,,,##########,,,,          '''####'''          '####       
            ,##' ,,,,###########################,,,                        '##       
           ' ,,###''''                  '''############,,,                           
         ,,##''                                '''############,,,,        ,,,,,,###''
      ,#''                                            '''#######################'''  
     '                                                          ''''####''''         
             ,#######,   #######,   ,#######,      ##                                
            ,#'     '#,  ##    ##  ,#'     '#,    #''#        ,####,   ,####,        
            ##       ##  ##   ,#'  ##            #'  '#       #'       #'  '#        
            ##       ##  #######   ##           ,######,      #####,   #    #        
            '#,     ,#'  ##    ##  '#,     ,#' ,#      #,     #,   #   #,  ,#        
             '#######'   ##     ##  '#######'  #'      '#     '####' # '####'        



                #########################################################
                #                        -***-                          #
                #          Department of theory and spectroscopy        #
                #                                                       #
                #                      Frank Neese                      #
                #                                                       #
                #     Directorship, Architecture, Infrastructure        #
                #                    SHARK, DRIVERS                     #
                #        Core code/Algorithms in most modules           #
                #                                                       #
                #        Max Planck Institute fuer Kohlenforschung      #
                #                Kaiser Wilhelm Platz 1                 #
                #                 D-45470 Muelheim/Ruhr                 #
                #                      Germany                          #
                #                                                       #
                #                  All rights reserved                  #
                #                        -***-                          #
                #########################################################


                         Program Version 6.0.1  -  RELEASE   -


 With contributions from (in alphabetic order):
[Max-Planck-Institut fuer Kohlenforschung]                               
  Daniel Aravena         : Magnetic Suceptibility                        
  Michael Atanasov       : Ab Initio Ligand Field Theory (pilot matlab implementation)
  Alexander A. Auer      : GIAO ZORA, VPT2 properties, NMR spectrum      
  Ute Becker             : All parallelization in ORCA, NUMFREQ, NUMCALC 
  Giovanni Bistoni       : ED, misc. LED, open-shell LED, HFLD           
  Martin Brehm           : Molecular dynamics                            
  Dmytro Bykov           : pre 5.0 version of the SCF Hessian            
  Marcos Casanova-Páez   : Triplet and SCS-CIS(D). UHF-(DLPNO)-IP/EA/STEOM-CCSD. UHF-CVS-IP/STEOM-CCSD   
  Vijay G. Chilkuri      : MRCI spin determinant printing, contributions to CSF-ICE 
  Pauline Colinet        : FMM embedding                                 
  Dipayan Datta          : RHF DLPNO-CCSD density                        
  Achintya Kumar Dutta   : EOM-CC, STEOM-CC                              
  Nicolas Foglia         : Exact transition moments, OPA infrastructure, MCD improvements    
  Dmitry Ganyushin       : Spin-Orbit,Spin-Spin,Magnetic field MRCI      
  Miquel Garcia-Rates    : C-PCM and meta-GGA Hessian, CCSD/C-PCM, Gaussian charge scheme 
  Tiago L. C. Gouveia    : GS-ROHF, GS-ROCIS                             
  Yang Guo               : DLPNO-NEVPT2, F12-NEVPT2, CIM, IAO-localization        
  Andreas Hansen         : Spin unrestricted coupled pair/coupled cluster methods 
  Ingolf Harden          : AUTO-CI MPn and infrastructure                
  Benjamin Helmich-Paris : MC-RPA, TRAH-(SCF,CASSCF), AVAS, COSX integrals, SCF dyn. polar. 
  Lee Huntington         : MR-EOM, pCC                                   
  Robert Izsak           : Overlap fitted RIJCOSX, COSX-SCS-MP3, EOM     
  Riya Kayal             : Wick's Theorem for AUTO-CI, AUTO-CI UHF-CCSDT 
  Emily Kempfer          : AUTO-CI, RHF CISDT and CCSDT                  
  Christian Kollmar      : KDIIS, OOCD, Brueckner-CCSD(T), CCSD density, CASPT2, CASPT2-K, improved NEVPT2 
  Axel Koslowski         : Symmetry handling                             
  Simone Kossmann        : meta-GGA functionals, TD-DFT gradient, OOMP2, (MP2 Hessian; deprecated post 5.0) 
  Lucas Lang             : DCDCAS                                        
  Marvin Lechner         : AUTO-CI (C++ implementation), FIC-MRCC        
  Spencer Leger          : CASSCF response                               
  Dagmar Lenk            : GEPOL surface, SMD, ORCA-2-JSON               
  Dimitrios Liakos       : Extrapolation schemes; Compound Job, initial MDCI parallelization 
  Dimitrios Manganas     : Further ROCIS development; embedding schemes. LFT, Crystal Embedding 
  Dimitrios Pantazis     : SARC Basis sets                               
  Anastasios Papadopoulos: AUTO-CI, single reference methods and gradients 
  Taras Petrenko         : pre 6.0 DFT Hessian and TD-DFT gradient, (ASA, deprecated), ECA, 1-Electron XAS/XES, NRVS 
  Peter Pinski           : DLPNO-MP2, DLPNO-MP2 Gradient                 
  Christoph Reimann      : Effective Core Potentials                     
  Marius Retegan         : Local ZFS, SOC                                
  Christoph Riplinger    : Optimizer, TS searches, QM/MM, DLPNO-CCSD(T), (RO)-DLPNO pert. Triples 
  Michael Roemelt        : Original ROCIS implementation                 
  Masaaki Saitow         : Open-shell DLPNO-CCSD energy and density      
  Barbara Sandhoefer     : DKH picture change effects                    
  Kantharuban Sivalingam : CASSCF convergence/infrastructure, NEVPT2 and variants, FIC-MRCI 
  Bernardo de Souza      : ESD, SOC TD-DFT                               
  Georgi L. Stoychev     : AutoAux, RI-MP2 NMR, DLPNO-MP2 response, X2C  
  Van Anh Tran           : RI-MP2 g-tensors                              
  Willem Van den Heuvel  : Paramagnetic NMR                              
  Zikuan Wang            : NOTCH, Electric field optimization            
  Frank Wennmohs         : Technical directorship and infrastructure     
  Hang Xu                : AUTO-CI-Response properties                   
                                                                         
[FACCTs GmbH]                                                            
  Markus Bursch, Miquel Garcia-Rates, Christoph Riplinger, Bernardo de Souza, Georgi L. Stoychev 
                                                                 
  APM, Basis sets (HGBS, AHGBS, def-TZVP (Ac-Lr), def2-XVPD (La-Lu)), CI-OPT, improved COSX, DLPNO-Multilevel,           
  DOCKER, DRACO, updates on ESD, GOAT, IRC, LR-CPCM, MBIS, meta-GGA TD-DFT gradient, ML-optimized integration grids, 
  MM, NACMEs, nearIR, NEB, NEB-TS, NL-DFT gradient (VV10), 2- and 3-layer-ONIOM, interface openCOSMO-RS, QMMM,   
  Crystal-QMMM, SF, symmetry and pop. for TD-DFT, r2SCAN hybrids, SOLVATOR                                   
                                                                         
[Other institutions]                                                     
  V. Asgeirsson          : NEB                                           
  Christoph Bannwarth    : sTDA-DFT, sTD-DFT, PBEh-3c, B97-3c, D3        
  Sebastian Ehlert       : rSCAN, r2SCAN, r2SCAN-3c, D4, dhf basis sets  
  Marvin Friede          : D4 for Fr, Ra, Ac-Lr                          
  Lars Goerigk           : TD-DFT with DH, B97 family of functionals     
  Stefan Grimme          : VdW corrections, initial TS optimization, DFT functionals, gCP, sTDA/sTD-DF 
  Waldemar Hujo          : DFT-NL                                        
  H. Jonsson             : NEB                                           
  Holger Kruse           : gCP                                           
  Marcel Mueller         : wB97X-3c, vDZP basis set                      
  Hagen Neugebauer       : wr2SCAN                                       
  Tobias Risthaus        : range-separated hybrid DFT                    
  Lukas Wittmann         : regularized MP2, r2SCAN double-hybrids, wr2SCAN        
                                                                         
We gratefully acknowledge several colleagues who have allowed us to      
interface, adapt or use parts of their codes:                            
  Ed Valeev, F. Pavosevic, A. Kumar             : LibInt (2-el integral package), F12 methods 
  Garnet Chan, S. Sharma, J. Yang, R. Olivares  : DMRG                   
  Ulf Ekstrom                                   : XCFun DFT Library      
  Mihaly Kallay                                 : mrcc  (arbitrary order and MRCC methods)
  Frank Weinhold                                : gennbo (NPA and NBO analysis)           
  Simon Mueller                                 : openCOSMO-RS                            
  Christopher J. Cramer and Donald G. Truhlar   : smd solvation model                     
  S Lehtola, MJT Oliveira, MAL Marques          : LibXC Library                           
  Liviu Ungur et al                             : ANISO software                          


 Your calculation uses the libint2 library for the computation of 2-el integrals
 For citations please refer to: http://libint.valeyev.net

 Your ORCA version has been built with support for libXC version: 6.2.2
 For citations please refer to: https://libxc.gitlab.io

 This ORCA versions uses:
   CBLAS   interface :  Fast vector & matrix operations
   LAPACKE interface :  Fast linear algebra routines
   SCALAPACK package :  Parallel linear algebra routines
   Shared memory     :  Shared parallel matrices
   BLAS/LAPACK       :  OpenBLAS 0.3.27  USE64BITINT DYNAMIC_ARCH NO_AFFINITY Cooperlake SINGLE_THREADED
        Core in use  :  Cooperlake
   Copyright (c) 2011-2014, The OpenBLAS Project


NOTE: MaxCore=3600 MB was set to SCF,MP2,MDCI,CIPSI,MRCI and CIS
      => If you want to overwrite this, your respective input block should be placed after the MaxCore statement
Warning: RI is on but no J-basis has been assigned. Assigning Def2/J (nothing to worry about!)
================================================================================

----- Orbital basis set information -----
Your calculation utilizes the basis: def2-TZVP
   F. Weigend and R. Ahlrichs, Phys. Chem. Chem. Phys. 7, 3297 (2005).

----- AuxJ basis set information -----
Your calculation utilizes the auxiliary basis: def2/J
   F. Weigend, Phys. Chem. Chem. Phys. 8, 1057 (2006).

================================================================================
                                        WARNINGS
                       Please study these warnings very carefully!
================================================================================


WARNING: your system is open-shell and RHF/RKS was chosen
  ===> : WILL SWITCH to UHF/UKS


WARNING: Geometry Optimization
  ===> : Switching off AutoStart
         For restart on a previous wavefunction, please use MOREAD

================================================================================
                                       INPUT FILE
================================================================================
NAME = VEFGIW-S6.inp
|  1> ! PBE0 def2-TZVP  Opt Freq DEFGRID3
|  2> 
|  3> %maxcore 3600
|  4> 
|  5> %pal
|  6>     nprocs 16
|  7> end
|  8> 
|  9> *xyz -1 2
| 10> Fe 3.273 1.945 3.7483
| 11> Cl 5.0117 2.0219 5.2939
| 12> Cl 3.9387 -0.117 2.8621
| 13> Cl 1.3006 1.9762 2.4665
| 14> O 4.3671 2.7627 2.3462
| 15> N 2.7906 3.9592 4.2735
| 16> N 2.0328 1.2354 5.4281
| 17> N 6.2461 1.7846 0.8654
| 18> N 9.6104 1.6086 1.3651
| 19> C 4.8017 3.9803 2.1194
| 20> C 4.2869 5.1367 2.7557
| 21> C 4.7286 6.4178 2.441
| 22> C 5.715 6.5793 1.4577
| 23> C 6.2691 5.4452 0.826
| 24> C 5.834 4.1341 1.1499
| 25> C 3.2779 5.0386 3.8293
| 26> C 2.5778 4.1107 6.0019
| 27> C 1.3882 3.5124 6.1107
| 28> C 1.295 2.0241 6.2426
| 29> C 0.4774 1.4627 7.2421
| 30> C 0.4368 0.0947 7.3971
| 31> C 1.2233 -0.7397 6.5873
| 32> C 2.0214 -0.1003 5.6294
| 33> C 6.2314 8.0074 1.1176
| 34> C 6.523 3.0245 0.5692
| 35> C 7.0298 0.6372 0.3586
| 36> C 7.8031 0.0067 1.5294
| 37> C 8.7919 0.9748 2.1356
| 38> C 8.7496 1.2087 3.4614
| 39> C 9.6529 2.1456 3.9797
| 40> C 10.6132 2.7404 3.23
| 41> C 10.4781 2.5377 1.9343
| 42> H 6.6651 8.4585 2.0089
| 43> H 6.989 7.9434 0.3379
| 44> H 5.4015 8.6198 0.7679
| 45> H 2.5441 5.1513 6.3211
| 46> H 3.3531 3.5855 6.5579
| 47> H 0.8206 3.7829 5.2215
| 48> H 0.9062 3.9344 6.9913
| 49> H 8.3425 -0.8666 1.1658
| 50> H 7.0932 -0.2987 2.2967
| 51> H 7.7313 0.9802 -0.4004
| 52> H 6.3576 -0.1014 -0.0756
| 53> H -0.1186 2.1056 7.8881
| 54> H -0.2113 -0.3436 8.1547
| 55> H 1.2138 -1.8231 6.6974
| 56> H 2.6713 -0.7169 5.0103
| 57> H 2.9257 5.9685 4.2734
| 58> H 4.3133 7.2849 2.9524
| 59> H 7.0462 5.5792 0.0749
| 60> H 7.3141 3.223 -0.1524
| 61> H 11.0878 3.1391 1.2617
| 62> H 11.4215 3.3311 3.6585
| 63> H 9.5803 2.4084 5.034
| 64> H 8.041 0.6898 4.1052
| 65> *
| 66> 
| 67>                          ****END OF INPUT****
================================================================================

                       *****************************
                       * Geometry Optimization Run *
                       *****************************

Geometry optimization settings:
Update method            Update   .... BFGS
Choice of coordinates    CoordSys .... (2022) Redundant Internals
Initial Hessian          InHess   .... Almloef's Model
Max. no of cycles        MaxIter  .... 165

Convergence Tolerances:
Energy Change            TolE     ....  5.0000e-06 Eh
Max. Gradient            TolMAXG  ....  3.0000e-04 Eh/bohr
RMS Gradient             TolRMSG  ....  1.0000e-04 Eh/bohr
Max. Displacement        TolMAXD  ....  4.0000e-03 bohr
RMS Displacement         TolRMSD  ....  2.0000e-03 bohr
Strict Convergence                .... False

------------------------------------------------------------------------------
                        ORCA OPTIMIZATION COORDINATE SETUP
------------------------------------------------------------------------------

The optimization will be done in redundant internal coordinates (2022)
Making redundant internal coordinates   ...  (2022 redundants) done
Evaluating the initial hessian          ...  (Almloef) done
Evaluating the coordinates              ...  done
Calculating the B-matrix                .... done
Calculating the G-matrix                .... done
Diagonalizing the G-matrix              .... done
Small eigenvalue found = 1.598e-03
Small eigenvalue found = 1.846e-03
Small eigenvalue found = 7.337e-03
Small eigenvalue found = 1.149e-02
Small eigenvalue found = 1.858e-02
Small eigenvalue found = 2.601e-02
The first mode is                       ....  147
The number of degrees of freedom        ....  159

    -----------------------------------------------------------------
                    Redundant Internal Coordinates


    -----------------------------------------------------------------
         Definition                    Initial Value    Approx d2E/dq
    -----------------------------------------------------------------
      1. B(Cl  1,Fe  0)                  2.3276         0.452822   
      2. B(Cl  2,Fe  0)                  2.3410         0.431098   
      3. B(Cl  3,Fe  0)                  2.3525         0.413258   
      4. B(O   4,Fe  0)                  1.9574         0.704183   
      5. B(N   5,Fe  0)                  2.1367         0.364473   
      6. B(N   6,Fe  0)                  2.2053         0.283295   
      7. B(C   9,O   4)                  1.3126         0.743695   
      8. B(C  10,C   9)                  1.4167         0.566335   
      9. B(C  11,C  10)                  1.3912         0.622118   
     10. B(C  12,C  11)                  1.4021         0.597584   
     11. B(C  13,C  12)                  1.4115         0.577405   
     12. B(C  14,C   9)                  1.4245         0.550403   
     13. B(C  14,C  13)                  1.4189         0.561914   
     14. B(C  15,C  10)                  1.4766         0.454556   
     15. B(C  15,N   5)                  1.2649         0.886182   
     16. B(C  16,N   5)                  1.7480         0.150198   
     17. B(C  17,C  16)                  1.3360         0.761835   
     18. B(C  18,C  17)                  1.4970         0.421665   
     19. B(C  18,N   6)                  1.3527         0.641770   
     20. B(C  19,C  18)                  1.4081         0.584684   
     21. B(C  20,C  19)                  1.3774         0.654513   
     22. B(C  21,C  20)                  1.4038         0.593968   
     23. B(C  22,C  21)                  1.4012         0.599606   
     24. B(C  22,N   6)                  1.3508         0.646199   
     25. B(C  23,C  12)                  1.5562         0.339275   
     26. B(C  24,C  14)                  1.4294         0.540630   
     27. B(C  24,N   7)                  1.3045         0.766057   
     28. B(C  25,N   7)                  1.4790         0.403476   
     29. B(C  26,C  25)                  1.5383         0.362387   
     30. B(C  27,C  26)                  1.5108         0.400922   
     31. B(C  27,N   8)                  1.2905         0.806618   
     32. B(C  28,C  27)                  1.3469         0.731880   
     33. B(C  29,C  28)                  1.4008         0.600393   
     34. B(C  30,C  29)                  1.3557         0.708612   
     35. B(C  31,C  30)                  1.3184         0.812779   
     36. B(C  31,N   8)                  1.3929         0.553705   
     37. B(H  32,C  23)                  1.0890         0.361376   
     38. B(H  33,C  23)                  1.0890         0.361386   
     39. B(H  34,C  23)                  1.0891         0.361342   
     40. B(H  35,C  16)                  1.0890         0.361455   
     41. B(H  36,C  16)                  1.0891         0.361340   
     42. B(H  37,C  17)                  1.0890         0.361367   
     43. B(H  38,C  17)                  1.0890         0.361460   
     44. B(H  39,C  26)                  1.0889         0.361493   
     45. B(H  40,C  26)                  1.0890         0.361391   
     46. B(H  41,C  25)                  1.0890         0.361479   
     47. B(H  42,C  25)                  1.0890         0.361431   
     48. B(H  43,C  19)                  1.0890         0.361467   
     49. B(H  44,C  20)                  1.0891         0.361317   
     50. B(H  45,C  21)                  1.0890         0.361397   
     51. B(H  46,C  22)                  1.0890         0.361468   
     52. B(H  47,C  15)                  1.0890         0.361387   
     53. B(H  48,C  11)                  1.0890         0.361459   
     54. B(H  49,C  13)                  1.0890         0.361382   
     55. B(H  50,C  24)                  1.0890         0.361409   
     56. B(H  51,C  31)                  1.0889         0.361495   
     57. B(H  52,C  30)                  1.0890         0.361446   
     58. B(H  53,C  29)                  1.0890         0.361448   
     59. B(H  54,Cl  1)                  3.5163         0.000109   
     60. B(H  54,C  28)                  1.0890         0.361469   
     61. A(Cl  2,Fe  0,N   5)          170.9526         0.478174   
     62. A(O   4,Fe  0,N   6)          173.9107         0.481155   
     63. A(Cl  1,Fe  0,O   4)           92.5397         0.545787   
     64. A(Cl  1,Fe  0,N   6)           85.6942         0.460714   
     65. A(Cl  2,Fe  0,O   4)           86.4369         0.540732   
     66. A(Cl  1,Fe  0,Cl  3)          170.9853         0.513110   
     67. A(Cl  1,Fe  0,Cl  2)           93.9022         0.517186   
     68. A(Cl  2,Fe  0,N   6)           99.4883         0.456601   
     69. A(Cl  3,Fe  0,N   6)           87.0073         0.453101   
     70. A(N   5,Fe  0,N   6)           89.3771         0.426848   
     71. A(Cl  2,Fe  0,Cl  3)           92.5126         0.508416   
     72. A(O   4,Fe  0,N   5)           84.7482         0.504170   
     73. A(Cl  3,Fe  0,O   4)           94.1753         0.536432   
     74. A(Cl  1,Fe  0,N   5)           88.5265         0.482529   
     75. A(Cl  3,Fe  0,N   5)           86.1087         0.474469   
     76. A(Fe  0,O   4,C   9)          134.1347         0.510430   
     77. A(Fe  0,N   5,C  16)          110.6233         0.341781   
     78. A(C  15,N   5,C  16)          108.6738         0.355978   
     79. A(Fe  0,N   5,C  15)          129.1345         0.466763   
     80. A(Fe  0,N   6,C  22)          115.8758         0.421206   
     81. A(C  18,N   6,C  22)          118.8286         0.434292   
     82. A(Fe  0,N   6,C  18)          125.2938         0.420690   
     83. A(C  24,N   7,C  25)          123.1665         0.412065   
     84. A(C  27,N   8,C  31)          118.6026         0.440135   
     85. A(O   4,C   9,C  14)          117.2384         0.436129   
     86. A(C  10,C   9,C  14)          118.7420         0.418078   
     87. A(O   4,C   9,C  10)          124.0045         0.438378   
     88. A(C   9,C  10,C  11)          122.3228         0.427328   
     89. A(C   9,C  10,C  15)          121.3742         0.404132   
     90. A(C  11,C  10,C  15)          116.2708         0.410904   
     91. A(C  10,C  11,H  48)          120.3935         0.353338   
     92. A(C  12,C  11,H  48)          120.3924         0.350942   
     93. A(C  10,C  11,C  12)          119.2142         0.431466   
     94. A(C  13,C  12,C  23)          120.6149         0.385239   
     95. A(C  11,C  12,C  23)          119.4990         0.387551   
     96. A(C  11,C  12,C  13)          119.8340         0.425733   
     97. A(C  14,C  13,H  49)          119.3379         0.347306   
     98. A(C  12,C  13,H  49)          119.3360         0.348901   
     99. A(C  12,C  13,C  14)          121.3261         0.421075   
    100. A(C   9,C  14,C  13)          118.5125         0.417495   
    101. A(C   9,C  14,C  24)          122.8192         0.414636   
    102. A(C  13,C  14,C  24)          118.4739         0.416166   
    103. A(N   5,C  15,C  10)          125.1202         0.434871   
    104. A(C  10,C  15,H  47)          117.4364         0.335203   
    105. A(N   5,C  15,H  47)          117.4434         0.373007   
    106. A(N   5,C  16,C  17)           98.6330         0.349137   
    107. A(N   5,C  16,H  36)          112.1070         0.279038   
    108. A(H  35,C  16,H  36)          109.4637         0.291168   
    109. A(C  17,C  16,H  36)          112.1071         0.365721   
    110. A(C  17,C  16,H  35)          112.1172         0.365741   
    111. A(N   5,C  16,H  35)          112.1117         0.279052   
    112. A(C  18,C  17,H  38)          106.6458         0.331064   
    113. A(C  18,C  17,H  37)          106.6441         0.331050   
    114. A(H  37,C  17,H  38)          109.4703         0.291172   
    115. A(C  16,C  17,H  38)          106.6439         0.365742   
    116. A(C  16,C  17,H  37)          106.6394         0.365726   
    117. A(C  16,C  17,C  18)          120.5186         0.420328   
    118. A(C  17,C  18,C  19)          119.6743         0.401063   
    119. A(N   6,C  18,C  19)          120.7740         0.429362   
    120. A(N   6,C  18,C  17)          119.5145         0.405091   
    121. A(C  20,C  19,H  43)          120.2302         0.356394   
    122. A(C  18,C  19,H  43)          120.2322         0.349652   
    123. A(C  18,C  19,C  20)          119.5376         0.433717   
    124. A(C  19,C  20,H  44)          119.7054         0.356369   
    125. A(C  21,C  20,H  44)          119.7021         0.350559   
    126. A(C  19,C  20,C  21)          120.5925         0.434948   
    127. A(C  22,C  21,H  45)          121.8738         0.351132   
    128. A(C  20,C  21,H  45)          121.8785         0.350572   
    129. A(C  20,C  21,C  22)          116.2477         0.428155   
    130. A(C  21,C  22,H  46)          118.0475         0.351144   
    131. A(N   6,C  22,H  46)          118.0424         0.353428   
    132. A(N   6,C  22,C  21)          123.9101         0.431842   
    133. A(H  32,C  23,H  34)          109.4722         0.291158   
    134. A(C  12,C  23,H  34)          109.4713         0.319424   
    135. A(H  32,C  23,H  33)          109.4668         0.291164   
    136. A(C  12,C  23,H  33)          109.4741         0.319431   
    137. A(C  12,C  23,H  32)          109.4756         0.319429   
    138. A(H  33,C  23,H  34)          109.4673         0.291160   
    139. A(C  14,C  24,H  50)          118.5457         0.345062   
    140. A(N   7,C  24,H  50)          118.5480         0.363799   
    141. A(N   7,C  24,C  14)          122.9063         0.437050   
    142. A(N   7,C  25,C  26)          108.8771         0.363979   
    143. A(H  41,C  25,H  42)          109.4732         0.291183   
    144. A(C  26,C  25,H  42)          109.6198         0.322900   
    145. A(N   7,C  25,H  42)          109.6158         0.326684   
    146. A(C  26,C  25,H  41)          109.6184         0.322907   
    147. A(N   7,C  25,H  41)          109.6221         0.326691   
    148. A(C  25,C  26,C  27)          111.8249         0.365862   
    149. A(H  39,C  26,H  40)          109.4664         0.291180   
    150. A(C  27,C  26,H  40)          108.8830         0.328306   
    151. A(C  25,C  26,H  40)          108.8751         0.322894   
    152. A(C  27,C  26,H  39)          108.8854         0.328321   
    153. A(C  25,C  26,H  39)          108.8796         0.322909   
    154. A(C  26,C  27,C  28)          119.0569         0.413606   
    155. A(N   8,C  27,C  28)          121.4886         0.466126   
    156. A(N   8,C  27,C  26)          119.3585         0.418099   
    157. A(C  29,C  28,H  54)          121.3018         0.351221   
    158. A(C  27,C  28,C  29)          117.3919         0.444673   
    159. A(C  27,C  28,H  54)          121.3063         0.363242   
    160. A(C  28,C  29,C  30)          123.0638         0.442081   
    161. A(C  30,C  29,H  53)          118.4713         0.361241   
    162. A(C  28,C  29,H  53)          118.4649         0.351218   
    163. A(C  29,C  30,C  31)          113.7926         0.467135   
    164. A(C  31,C  30,H  52)          123.1046         0.369824   
    165. A(C  29,C  30,H  52)          123.1029         0.361240   
    166. A(N   8,C  31,C  30)          124.6111         0.443659   
    167. A(C  30,C  31,H  51)          117.6934         0.369832   
    168. A(N   8,C  31,H  51)          117.6954         0.344346   
    169. D(C   9,O   4,Fe  0,Cl  2)   -168.0487         0.003945   
    170. D(C   9,O   4,Fe  0,N   6)     -1.3130         0.003945   
    171. D(C   9,O   4,Fe  0,Cl  1)    -74.2937         0.003945   
    172. D(C   9,O   4,Fe  0,N   5)     13.9914         0.003945   
    173. D(C   9,O   4,Fe  0,Cl  3)     99.6878         0.003945   
    174. D(C  15,N   5,Fe  0,Cl  1)     85.0764         0.002201   
    175. D(C  15,N   5,Fe  0,Cl  2)    -20.6692         0.002201   
    176. D(C  15,N   5,Fe  0,N   6)    170.7850         0.002201   
    177. D(C  16,N   5,Fe  0,Cl  1)    -53.2775         0.002201   
    178. D(C  15,N   5,Fe  0,O   4)     -7.6105         0.002201   
    179. D(C  15,N   5,Fe  0,Cl  3)   -102.1724         0.002201   
    180. D(C  16,N   5,Fe  0,Cl  2)   -159.0231         0.002201   
    181. D(C  18,N   6,Fe  0,Cl  3)    -82.4718         0.001927   
    182. D(C  18,N   6,Fe  0,Cl  2)   -174.5217         0.001927   
    183. D(C  18,N   6,Fe  0,O   4)     18.9035         0.001927   
    184. D(C  18,N   6,Fe  0,Cl  1)     92.2331         0.001927   
    185. D(C  18,N   6,Fe  0,N   5)      3.6640         0.001927   
    186. D(C  22,N   6,Fe  0,Cl  2)      4.9834         0.001927   
    187. D(C  22,N   6,Fe  0,Cl  1)    -88.2618         0.001927   
    188. D(C  14,C   9,O   4,Fe  0)    165.9161         0.041930   
    189. D(C  10,C   9,O   4,Fe  0)    -15.5218         0.041930   
    190. D(C  15,C  10,C   9,C  14)   -176.0897         0.021990   
    191. D(C  11,C  10,C   9,O   4)   -176.7718         0.021990   
    192. D(C  11,C  10,C   9,C  14)      1.7702         0.021990   
    193. D(C  15,C  10,C   9,O   4)      5.3683         0.021990   
    194. D(H  48,C  11,C  10,C  15)     -1.8329         0.026793   
    195. D(H  48,C  11,C  10,C   9)   -179.7953         0.026793   
    196. D(C  12,C  11,C  10,C  15)    178.1571         0.026793   
    197. D(C  12,C  11,C  10,C   9)      0.1947         0.026793   
    198. D(C  13,C  12,C  11,H  48)    178.4188         0.024607   
    199. D(C  13,C  12,C  11,C  10)     -1.5712         0.024607   
    200. D(C  23,C  12,C  11,H  48)      1.0288         0.024607   
    201. D(C  23,C  12,C  11,C  10)   -178.9612         0.024607   
    202. D(H  49,C  13,C  12,C  23)     -1.6576         0.022896   
    203. D(H  49,C  13,C  12,C  11)   -179.0180         0.022896   
    204. D(C  14,C  13,C  12,C  23)    178.3424         0.022896   
    205. D(C  14,C  13,C  12,C  11)      0.9820         0.022896   
    206. D(C  24,C  14,C  13,H  49)      5.9055         0.021634   
    207. D(C  24,C  14,C  13,C  12)   -174.0945         0.021634   
    208. D(C   9,C  14,C  13,H  49)   -179.0157         0.021634   
    209. D(C   9,C  14,C  13,C  12)      0.9843         0.021634   
    210. D(C  24,C  14,C   9,C  10)    172.5464         0.020725   
    211. D(C  24,C  14,C   9,O   4)     -8.8131         0.020725   
    212. D(C  13,C  14,C   9,C  10)     -2.3055         0.020725   
    213. D(C  13,C  14,C   9,O   4)    176.3351         0.020725   
    214. D(H  47,C  15,C  10,C  11)      2.0736         0.014080   
    215. D(H  47,C  15,C  10,C   9)   -179.9432         0.014080   
    216. D(N   5,C  15,C  10,C  11)   -177.9289         0.014080   
    217. D(N   5,C  15,C  10,C   9)      0.0544         0.014080   
    218. D(H  47,C  15,N   5,C  16)    -37.8187         0.068762   
    219. D(H  47,C  15,N   5,Fe  0)   -176.7850         0.068762   
    220. D(C  10,C  15,N   5,C  16)    142.1838         0.068762   
    221. D(C  10,C  15,N   5,Fe  0)      3.2175         0.068762   
    222. D(H  36,C  16,N   5,Fe  0)     44.1292         0.002992   
    223. D(H  35,C  16,N   5,C  15)     20.6815         0.002992   
    224. D(H  35,C  16,N   5,Fe  0)    167.7187         0.002992   
    225. D(C  17,C  16,N   5,C  15)    138.8935         0.002992   
    226. D(C  17,C  16,N   5,Fe  0)    -74.0693         0.002992   
    227. D(H  37,C  17,C  16,H  35)     82.1027         0.048649   
    228. D(H  37,C  17,C  16,N   5)    -36.1052         0.048649   
    229. D(C  18,C  17,C  16,H  36)    -32.7570         0.048649   
    230. D(C  18,C  17,C  16,H  35)   -156.3508         0.048649   
    231. D(C  18,C  17,C  16,N   5)     85.4414         0.048649   
    232. D(H  37,C  17,C  16,H  36)   -154.3036         0.048649   
    233. D(C  19,C  18,C  17,H  37)   -106.3387         0.013144   
    234. D(C  19,C  18,C  17,C  16)    132.1170         0.013144   
    235. D(N   6,C  18,C  17,H  38)   -167.2338         0.013144   
    236. D(N   6,C  18,C  17,H  37)     75.8625         0.013144   
    237. D(N   6,C  18,C  17,C  16)    -45.6818         0.013144   
    238. D(C  19,C  18,N   6,C  22)     -3.0632         0.033539   
    239. D(C  19,C  18,N   6,Fe  0)    176.4285         0.033539   
    240. D(C  17,C  18,N   6,C  22)    174.7109         0.033539   
    241. D(C  17,C  18,N   6,Fe  0)     -5.7974         0.033539   
    242. D(H  43,C  19,C  18,C  17)      2.6854         0.023505   
    243. D(H  43,C  19,C  18,N   6)   -179.5441         0.023505   
    244. D(C  20,C  19,C  18,C  17)   -177.3096         0.023505   
    245. D(C  20,C  19,C  18,N   6)      0.4609         0.023505   
    246. D(H  44,C  20,C  19,H  43)      1.3487         0.029857   
    247. D(H  44,C  20,C  19,C  18)   -178.6563         0.029857   
    248. D(C  21,C  20,C  19,H  43)   -178.6520         0.029857   
    249. D(C  21,C  20,C  19,C  18)      1.3430         0.029857   
    250. D(H  45,C  21,C  20,H  44)     -0.5212         0.024295   
    251. D(H  45,C  21,C  20,C  19)    179.4795         0.024295   
    252. D(C  22,C  21,C  20,H  44)    179.4843         0.024295   
    253. D(C  22,C  21,C  20,C  19)     -0.5150         0.024295   
    254. D(H  46,C  22,C  21,H  45)     -2.2358         0.024783   
    255. D(H  46,C  22,C  21,C  20)    177.7587         0.024783   
    256. D(N   6,C  22,C  21,H  45)    177.7675         0.024783   
    257. D(N   6,C  22,C  21,C  20)     -2.2380         0.024783   
    258. D(H  46,C  22,N   6,C  18)   -175.9488         0.034043   
    259. D(H  46,C  22,N   6,Fe  0)      4.5123         0.034043   
    260. D(C  21,C  22,N   6,C  18)      4.0479         0.034043   
    261. D(C  21,C  22,N   6,Fe  0)   -175.4910         0.034043   
    262. D(H  34,C  23,C  12,C  11)    -60.0016         0.008750   
    263. D(H  33,C  23,C  12,C  13)      2.6321         0.008750   
    264. D(H  33,C  23,C  12,C  11)   -179.9987         0.008750   
    265. D(H  32,C  23,C  12,C  13)   -117.3669         0.008750   
    266. D(H  32,C  23,C  12,C  11)     60.0022         0.008750   
    267. D(H  50,C  24,C  14,C  13)     -4.0166         0.019972   
    268. D(H  50,C  24,C  14,C   9)   -178.8703         0.019972   
    269. D(N   7,C  24,C  14,C  13)    175.9822         0.019972   
    270. D(N   7,C  24,C  14,C   9)      1.1285         0.019972   
    271. D(H  50,C  24,N   7,C  25)      5.4318         0.044778   
    272. D(C  14,C  24,N   7,C  25)   -174.5670         0.044778   
    273. D(H  42,C  25,N   7,C  24)   -129.4931         0.012852   
    274. D(H  41,C  25,N   7,C  24)     -9.3086         0.012852   
    275. D(C  26,C  25,N   7,C  24)    110.6002         0.012852   
    276. D(H  39,C  26,C  25,H  42)     57.4181         0.010526   
    277. D(H  39,C  26,C  25,H  41)    -62.7666         0.010526   
    278. D(H  39,C  26,C  25,N   7)    177.3223         0.010526   
    279. D(C  27,C  26,C  25,H  42)    177.7792         0.010526   
    280. D(C  27,C  26,C  25,H  41)     57.5945         0.010526   
    281. D(C  27,C  26,C  25,N   7)    -62.3166         0.010526   
    282. D(C  28,C  27,C  26,H  39)   -113.2343         0.011927   
    283. D(C  28,C  27,C  26,C  25)    126.4081         0.011927   
    284. D(N   8,C  27,C  26,H  40)   -170.4350         0.011927   
    285. D(N   8,C  27,C  26,H  39)     70.2730         0.011927   
    286. D(N   8,C  27,C  26,C  25)    -50.0846         0.011927   
    287. D(C  28,C  27,N   8,C  31)      1.0047         0.050244   
    288. D(C  26,C  27,N   8,C  31)    177.4093         0.050244   
    289. D(H  54,C  28,C  27,C  26)      2.0707         0.038024   
    290. D(H  54,C  28,C  27,N   8)    178.4859         0.038024   
    291. D(C  29,C  28,C  27,C  26)   -177.9318         0.038024   
    292. D(C  29,C  28,C  27,N   8)     -1.5166         0.038024   
    293. D(H  53,C  29,C  28,C  27)    175.0879         0.024852   
    294. D(C  30,C  29,C  28,H  54)    175.0871         0.024852   
    295. D(C  30,C  29,C  28,C  27)     -4.9104         0.024852   
    296. D(H  53,C  29,C  28,H  54)     -4.9146         0.024852   
    297. D(H  52,C  30,C  29,H  53)     11.0482         0.035439   
    298. D(H  52,C  30,C  29,C  28)   -168.9535         0.035439   
    299. D(C  31,C  30,C  29,H  53)   -168.9494         0.035439   
    300. D(C  31,C  30,C  29,C  28)     11.0490         0.035439   
    301. D(H  51,C  31,C  30,H  52)    -11.8372         0.047902   
    302. D(H  51,C  31,C  30,C  29)    168.1603         0.047902   
    303. D(N   8,C  31,C  30,H  52)    168.1680         0.047902   
    304. D(N   8,C  31,C  30,C  29)    -11.8344         0.047902   
    305. D(H  51,C  31,N   8,C  27)   -173.6825         0.022188   
    306. D(C  30,C  31,N   8,C  27)      6.3123         0.022188   
    -----------------------------------------------------------------

Number of atoms                         .... 55
Number of degrees of freedom            .... 306


         *************************************************************
         *                GEOMETRY OPTIMIZATION CYCLE   1            *
         *************************************************************
---------------------------------
CARTESIAN COORDINATES (ANGSTROEM)
---------------------------------
  Fe     3.273000    1.945000    3.748300
  Cl     5.011700    2.021900    5.293900
  Cl     3.938700   -0.117000    2.862100
  Cl     1.300600    1.976200    2.466500
  O      4.367100    2.762700    2.346200
  N      2.790600    3.959200    4.273500
  N      2.032800    1.235400    5.428100
  N      6.246100    1.784600    0.865400
  N      9.610400    1.608600    1.365100
  C      4.801700    3.980300    2.119400
  C      4.286900    5.136700    2.755700
  C      4.728600    6.417800    2.441000
  C      5.715000    6.579300    1.457700
  C      6.269100    5.445200    0.826000
  C      5.834000    4.134100    1.149900
  C      3.277900    5.038600    3.829300
  C      2.577800    4.110700    6.001900
  C      1.388200    3.512400    6.110700
  C      1.295000    2.024100    6.242600
  C      0.477400    1.462700    7.242100
  C      0.436800    0.094700    7.397100
  C      1.223300   -0.739700    6.587300
  C      2.021400   -0.100300    5.629400
  C      6.231400    8.007400    1.117600
  C      6.523000    3.024500    0.569200
  C      7.029800    0.637200    0.358600
  C      7.803100    0.006700    1.529400
  C      8.791900    0.974800    2.135600
  C      8.749600    1.208700    3.461400
  C      9.652900    2.145600    3.979700
  C     10.613200    2.740400    3.230000
  C     10.478100    2.537700    1.934300
  H      6.665100    8.458500    2.008900
  H      6.989000    7.943400    0.337900
  H      5.401500    8.619800    0.767900
  H      2.544100    5.151300    6.321100
  H      3.353100    3.585500    6.557900
  H      0.820600    3.782900    5.221500
  H      0.906200    3.934400    6.991300
  H      8.342500   -0.866600    1.165800
  H      7.093200   -0.298700    2.296700
  H      7.731300    0.980200   -0.400400
  H      6.357600   -0.101400   -0.075600
  H     -0.118600    2.105600    7.888100
  H     -0.211300   -0.343600    8.154700
  H      1.213800   -1.823100    6.697400
  H      2.671300   -0.716900    5.010300
  H      2.925700    5.968500    4.273400
  H      4.313300    7.284900    2.952400
  H      7.046200    5.579200    0.074900
  H      7.314100    3.223000   -0.152400
  H     11.087800    3.139100    1.261700
  H     11.421500    3.331100    3.658500
  H      9.580300    2.408400    5.034000
  H      8.041000    0.689800    4.105200

----------------------------
CARTESIAN COORDINATES (A.U.)
----------------------------
  NO LB      ZA    FRAG     MASS         X           Y           Z
   0 Fe   26.0000    0    55.850    6.185074    3.675517    7.083260
   1 Cl   17.0000    0    35.453    9.470740    3.820837   10.004021
   2 Cl   17.0000    0    35.453    7.443064   -0.221098    5.408585
   3 Cl   17.0000    0    35.453    2.457778    3.734477    4.661010
   4 O     8.0000    0    15.999    8.252623    5.220746    4.433675
   5 N     7.0000    0    14.007    5.273470    7.481804    8.075745
   6 N     7.0000    0    14.007    3.841435    2.334568   10.257622
   7 N     7.0000    0    14.007   11.803418    3.372405    1.635369
   8 N     7.0000    0    14.007   18.161024    3.039813    2.579665
   9 C     6.0000    0    12.011    9.073898    7.521677    4.005086
  10 C     6.0000    0    12.011    8.101067    9.706956    5.207518
  11 C     6.0000    0    12.011    8.935759   12.127884    4.612821
  12 C     6.0000    0    12.011   10.799785   12.433075    2.754654
  13 C     6.0000    0    12.011   11.846882   10.289937    1.560914
  14 C     6.0000    0    12.011   11.024662    7.812317    2.172996
  15 C     6.0000    0    12.011    6.194333    9.521574    7.236328
  16 C     6.0000    0    12.011    4.871336    7.768097   11.341947
  17 C     6.0000    0    12.011    2.623318    6.637474   11.547549
  18 C     6.0000    0    12.011    2.447195    3.824995   11.796804
  19 C     6.0000    0    12.011    0.902155    2.764102   13.685586
  20 C     6.0000    0    12.011    0.825432    0.178957   13.978493
  21 C     6.0000    0    12.011    2.311702   -1.397830   12.448193
  22 C     6.0000    0    12.011    3.819892   -0.189540   10.638024
  23 C     6.0000    0    12.011   11.775639   15.131793    2.111958
  24 C     6.0000    0    12.011   12.326684    5.715477    1.075632
  25 C     6.0000    0    12.011   13.284397    1.204133    0.677656
  26 C     6.0000    0    12.011   14.745722    0.012661    2.890147
  27 C     6.0000    0    12.011   16.614283    1.842105    4.035699
  28 C     6.0000    0    12.011   16.534348    2.284112    6.541098
  29 C     6.0000    0    12.011   18.241337    4.054596    7.520543
  30 C     6.0000    0    12.011   20.056041    5.178605    6.103815
  31 C     6.0000    0    12.011   19.800739    4.795558    3.655297
  32 H     1.0000    0     1.008   12.595214   15.984249    3.796271
  33 H     1.0000    0     1.008   13.207296   15.010851    0.638538
  34 H     1.0000    0     1.008   10.207356   16.289061    1.451121
  35 H     1.0000    0     1.008    4.807652    9.734546   11.945148
  36 H     1.0000    0     1.008    6.336441    6.775613   12.392635
  37 H     1.0000    0     1.008    1.550709    7.148645    9.867205
  38 H     1.0000    0     1.008    1.712470    7.434939   13.211642
  39 H     1.0000    0     1.008   15.765040   -1.637637    2.203043
  40 H     1.0000    0     1.008   13.404205   -0.564461    4.340134
  41 H     1.0000    0     1.008   14.610040    1.852310   -0.756646
  42 H     1.0000    0     1.008   12.014123   -0.191618   -0.142863
  43 H     1.0000    0     1.008   -0.224122    3.979007   14.906349
  44 H     1.0000    0     1.008   -0.399299   -0.649310   15.410150
  45 H     1.0000    0     1.008    2.293750   -3.445160   12.656252
  46 H     1.0000    0     1.008    5.048025   -1.354745    9.468095
  47 H     1.0000    0     1.008    5.528772   11.278830    8.075556
  48 H     1.0000    0     1.008    8.150956   13.766466    5.579227
  49 H     1.0000    0     1.008   13.315388   10.543160    0.141540
  50 H     1.0000    0     1.008   13.821646    6.090587   -0.287994
  51 H     1.0000    0     1.008   20.952905    5.932039    2.384267
  52 H     1.0000    0     1.008   21.583507    6.294867    6.913563
  53 H     1.0000    0     1.008   18.104143    4.551216    9.512881
  54 H     1.0000    0     1.008   15.195288    1.303533    7.757704

--------------------------------
INTERNAL COORDINATES (ANGSTROEM)
--------------------------------
 Fe     0   0   0     0.000000000000     0.00000000     0.00000000
 Cl     1   0   0     2.327631985517     0.00000000     0.00000000
 Cl     1   2   0     2.341014935877    93.90220447     0.00000000
 Cl     1   2   3     2.352519168891   170.98529584   135.26660459
 O      1   2   3     1.957440295386    92.53970453   273.40123727
 N      1   2   3     2.136713934995    88.52648713   188.72559960
 N      1   2   3     2.205301847820    85.69418761    99.23949279
 N      5   1   2     2.584586862537   131.19738570    76.20059139
 N      8   5   1     3.405758444165   130.81710213   270.51022862
 C      5   1   2     1.312579582349   134.13471474   285.70628173
 C     10   5   1     1.416741927805   124.00446473   344.47820143
 C     11  10   5     1.391169360646   122.32281467   183.22822622
 C     12  11  10     1.402121998972   119.21417676     0.19471496
 C     13  12  11     1.411472461651   119.83397266   358.42876158
 C     14  13  12     1.418875057924   121.32610135     0.98199996
 C      6   1   2     1.264863348350   129.13452248    85.07639750
 C      6   1   2     1.748028217736   110.62327902   306.72250317
 C     17   6   1     1.336019644317    98.63298985   285.93068732
 C      7   1   2     1.352703507795   125.29380540    92.23310037
 C     19   7   1     1.408062487960   120.77403142   176.42852645
 C     20  19   7     1.377351574581   119.53759769     0.46089904
 C     21  20  19     1.403774073703   120.59248108     1.34300166
 C      7   1   2     1.350831647542   115.87575478   271.73816287
 C     13  12  11     1.556215467087   119.49895285   181.03875582
 C      8   5   1     1.304515258631    85.68232133   194.03269039
 C      8   5   1     1.479039786483   151.05876275     9.74651506
 C     26   8   5     1.538276886649   108.87714714   295.70800944
 C      9   8   5     1.290470821057    59.09875847    64.29658133
 C     28   9   8     1.346938803361   121.48864803   239.38132691
 C     29  28   9     1.400845241274   117.39193532   358.48338591
 C     30  29  28     1.355733462005   123.06383689   355.08959070
 C     31  30  29     1.318399707979   113.79255540    11.04895665
 H     24  13  12     1.089037460329   109.47558868    60.00223412
 H     24  13  12     1.089029774616   109.47410905   180.00131131
 H     24  13  12     1.089062835653   109.47130096   299.99836817
 H     17   6   1     1.088977818874   112.11171472   167.71868620
 H     17   6   1     1.089064336942   112.10698134    44.12917760
 H     18  17   6     1.089043915552   106.63944488   323.89483762
 H     18  17   6     1.088973994180   106.64391606   206.99434251
 H     27  26   8     1.088949131043   108.87957499   177.32233808
 H     27  26   8     1.089025463430   108.87505981    58.03842511
 H     26   8   5     1.088959250845   109.62211247   175.79920832
 H     26   8   5     1.088996069782   109.61577635    55.61471885
 H     20  19   7     1.088968507350   120.23217607   180.45590495
 H     21  20  19     1.089081383552   119.70543058   181.34373146
 H     22  21  20     1.089021496574   121.87851797   179.47948718
 H     23   7   1     1.088967575275   118.04238780     4.51232112
 H     16   6   1     1.089028769133   117.44335474   183.21504586
 H     12  11  10     1.088974958390   120.39347020   180.20469959
 H     14  13  12     1.089032423760   119.33602074   180.98196023
 H     25   8   5     1.089012405806   118.54801617   182.95549624
 H     32  31  30     1.088947569904   117.69344844   168.16033900
 H     31  30  29     1.088984678496   123.10288279   191.04654560
 H     30  29  28     1.088982593984   118.46485862   175.08791857
 H     29  28   9     1.088967221729   121.30625947   178.48589117

---------------------------
INTERNAL COORDINATES (A.U.)
---------------------------
 Fe     0   0   0     0.000000000000     0.00000000     0.00000000
 Cl     1   0   0     4.398586993182     0.00000000     0.00000000
 Cl     1   2   0     4.423877104227    93.90220447     0.00000000
 Cl     1   2   3     4.445616954004   170.98529584   135.26660459
 O      1   2   3     3.699026081781    92.53970453   273.40123727
 N      1   2   3     4.037804163673    88.52648713   188.72559960
 N      1   2   3     4.167416535011    85.69418761    99.23949279
 N      5   1   2     4.884161339526   131.19738570    76.20059139
 N      8   5   1     6.435950737761   130.81710213   270.51022862
 C      5   1   2     2.480415939617   134.13471474   285.70628173
 C     10   5   1     2.677254245995   124.00446473   344.47820143
 C     11  10   5     2.628929097523   122.32281467   183.22822622
 C     12  11  10     2.649626584402   119.21417676     0.19471496
 C     13  12  11     2.667296398093   119.83397266   358.42876158
 C     14  13  12     2.681285277729   121.32610135     0.98199996
 C      6   1   2     2.390245325217   129.13452248    85.07639750
 C      6   1   2     3.303294605887   110.62327902   306.72250317
 C     17   6   1     2.524711237297    98.63298985   285.93068732
 C      7   1   2     2.556239170127   125.29380540    92.23310037
 C     19   7   1     2.660852481692   120.77403142   176.42852645
 C     20  19   7     2.602817266083   119.53759769     0.46089904
 C     21  20  19     2.652748553197   120.59248108     1.34300166
 C      7   1   2     2.552701866887   115.87575478   271.73816287
 C     13  12  11     2.940821038166   119.49895285   181.03875582
 C      8   5   1     2.465176576333    85.68232133   194.03269039
 C      8   5   1     2.794980137626   151.05876275     9.74651506
 C     26   8   5     2.906922033909   108.87714714   295.70800944
 C      9   8   5     2.438636435615    59.09875847    64.29658133
 C     28   9   8     2.545345457504   121.48864803   239.38132691
 C     29  28   9     2.647213862015   117.39193532   358.48338591
 C     30  29  28     2.561964953782   123.06383689   355.08959070
 C     31  30  29     2.491414383123   113.79255540    11.04895665
 H     24  13  12     2.057982549603   109.47558868    60.00223412
 H     24  13  12     2.057968025710   109.47410905   180.00131131
 H     24  13  12     2.058030502015   109.47130096   299.99836817
 H     17   6   1     2.057869843587   112.11171472   167.71868620
 H     17   6   1     2.058033339042   112.10698134    44.12917760
 H     18  17   6     2.057994748206   106.63944488   323.89483762
 H     18  17   6     2.057862615962   106.64391606   206.99434251
 H     27  26   8     2.057815631443   108.87957499   177.32233808
 H     27  26   8     2.057959878750   108.87505981    58.03842511
 H     26   8   5     2.057834755096   109.62211247   175.79920832
 H     26   8   5     2.057904332804   109.61577635    55.61471885
 H     20  19   7     2.057852247356   120.23217607   180.45590495
 H     21  20  19     2.058065552466   119.70543058   181.34373146
 H     22  21  20     2.057952382478   121.87851797   179.47948718
 H     23   7   1     2.057850485990   118.04238780     4.51232112
 H     16   6   1     2.057966125623   117.44335474   183.21504586
 H     12  11  10     2.057864438055   120.39347020   180.20469959
 H     14  13  12     2.057973031866   119.33602074   180.98196023
 H     25   8   5     2.057935203417   118.54801617   182.95549624
 H     32  31  30     2.057812681318   117.69344844   168.16033900
 H     31  30  29     2.057882806395   123.10288279   191.04654560
 H     30  29  28     2.057878867237   118.46485862   175.08791857
 H     29  28   9     2.057849817885   121.30625947   178.48589117

---------------------
BASIS SET INFORMATION
---------------------
There are 6 groups of distinct atoms

 Group   1 Type Fe  : 17s11p7d1f contracted to 6s4p4d1f pattern {842111/6311/4111/1}
 Group   2 Type Cl  : 14s9p3d1f contracted to 5s5p2d1f pattern {73211/51111/21/1}
 Group   3 Type O   : 11s6p2d1f contracted to 5s3p2d1f pattern {62111/411/11/1}
 Group   4 Type N   : 11s6p2d1f contracted to 5s3p2d1f pattern {62111/411/11/1}
 Group   5 Type C   : 11s6p2d1f contracted to 5s3p2d1f pattern {62111/411/11/1}
 Group   6 Type H   : 5s1p contracted to 3s1p pattern {311/1}

Atom   0Fe   basis set group =>   1
Atom   1Cl   basis set group =>   2
Atom   2Cl   basis set group =>   2
Atom   3Cl   basis set group =>   2
Atom   4O    basis set group =>   3
Atom   5N    basis set group =>   4
Atom   6N    basis set group =>   4
Atom   7N    basis set group =>   4
Atom   8N    basis set group =>   4
Atom   9C    basis set group =>   5
Atom  10C    basis set group =>   5
Atom  11C    basis set group =>   5
Atom  12C    basis set group =>   5
Atom  13C    basis set group =>   5
Atom  14C    basis set group =>   5
Atom  15C    basis set group =>   5
Atom  16C    basis set group =>   5
Atom  17C    basis set group =>   5
Atom  18C    basis set group =>   5
Atom  19C    basis set group =>   5
Atom  20C    basis set group =>   5
Atom  21C    basis set group =>   5
Atom  22C    basis set group =>   5
Atom  23C    basis set group =>   5
Atom  24C    basis set group =>   5
Atom  25C    basis set group =>   5
Atom  26C    basis set group =>   5
Atom  27C    basis set group =>   5
Atom  28C    basis set group =>   5
Atom  29C    basis set group =>   5
Atom  30C    basis set group =>   5
Atom  31C    basis set group =>   5
Atom  32H    basis set group =>   6
Atom  33H    basis set group =>   6
Atom  34H    basis set group =>   6
Atom  35H    basis set group =>   6
Atom  36H    basis set group =>   6
Atom  37H    basis set group =>   6
Atom  38H    basis set group =>   6
Atom  39H    basis set group =>   6
Atom  40H    basis set group =>   6
Atom  41H    basis set group =>   6
Atom  42H    basis set group =>   6
Atom  43H    basis set group =>   6
Atom  44H    basis set group =>   6
Atom  45H    basis set group =>   6
Atom  46H    basis set group =>   6
Atom  47H    basis set group =>   6
Atom  48H    basis set group =>   6
Atom  49H    basis set group =>   6
Atom  50H    basis set group =>   6
Atom  51H    basis set group =>   6
Atom  52H    basis set group =>   6
Atom  53H    basis set group =>   6
Atom  54H    basis set group =>   6
---------------------------------
AUXILIARY/J BASIS SET INFORMATION
---------------------------------
There are 6 groups of distinct atoms

 Group   1 Type Fe  : 19s5p5d3f3g contracted to 8s5p5d2f3g pattern {121111111/11111/11111/21/111}
 Group   2 Type Cl  : 14s5p5d2f1g contracted to 8s4p3d1f1g pattern {71111111/2111/311/2/1}
 Group   3 Type O   : 12s5p4d2f1g contracted to 6s4p3d1f1g pattern {711111/2111/211/2/1}
 Group   4 Type N   : 12s5p4d2f1g contracted to 6s4p3d1f1g pattern {711111/2111/211/2/1}
 Group   5 Type C   : 12s5p4d2f1g contracted to 6s4p3d1f1g pattern {711111/2111/211/2/1}
 Group   6 Type H   : 5s2p1d contracted to 3s1p1d pattern {311/2/1}

Atom   0Fe   basis set group =>   1
Atom   1Cl   basis set group =>   2
Atom   2Cl   basis set group =>   2
Atom   3Cl   basis set group =>   2
Atom   4O    basis set group =>   3
Atom   5N    basis set group =>   4
Atom   6N    basis set group =>   4
Atom   7N    basis set group =>   4
Atom   8N    basis set group =>   4
Atom   9C    basis set group =>   5
Atom  10C    basis set group =>   5
Atom  11C    basis set group =>   5
Atom  12C    basis set group =>   5
Atom  13C    basis set group =>   5
Atom  14C    basis set group =>   5
Atom  15C    basis set group =>   5
Atom  16C    basis set group =>   5
Atom  17C    basis set group =>   5
Atom  18C    basis set group =>   5
Atom  19C    basis set group =>   5
Atom  20C    basis set group =>   5
Atom  21C    basis set group =>   5
Atom  22C    basis set group =>   5
Atom  23C    basis set group =>   5
Atom  24C    basis set group =>   5
Atom  25C    basis set group =>   5
Atom  26C    basis set group =>   5
Atom  27C    basis set group =>   5
Atom  28C    basis set group =>   5
Atom  29C    basis set group =>   5
Atom  30C    basis set group =>   5
Atom  31C    basis set group =>   5
Atom  32H    basis set group =>   6
Atom  33H    basis set group =>   6
Atom  34H    basis set group =>   6
Atom  35H    basis set group =>   6
Atom  36H    basis set group =>   6
Atom  37H    basis set group =>   6
Atom  38H    basis set group =>   6
Atom  39H    basis set group =>   6
Atom  40H    basis set group =>   6
Atom  41H    basis set group =>   6
Atom  42H    basis set group =>   6
Atom  43H    basis set group =>   6
Atom  44H    basis set group =>   6
Atom  45H    basis set group =>   6
Atom  46H    basis set group =>   6
Atom  47H    basis set group =>   6
Atom  48H    basis set group =>   6
Atom  49H    basis set group =>   6
Atom  50H    basis set group =>   6
Atom  51H    basis set group =>   6
Atom  52H    basis set group =>   6
Atom  53H    basis set group =>   6
Atom  54H    basis set group =>   6


           ************************************************************
           *        Program running with 16 parallel MPI-processes    *
           *              working on a common directory               *
           ************************************************************
------------------------------------------------------------------------------
                             ORCA STARTUP CALCULATIONS
                           -- RI-GTO INTEGRALS CHOSEN --
------------------------------------------------------------------------------
------------------------------------------------------------------------------
                   ___                                                        
                  /   \      - P O W E R E D   B Y -                         
                 /     \                                                     
                 |  |  |   _    _      __       _____    __    __             
                 |  |  |  | |  | |    /  \     |  _  \  |  |  /  |          
                  \  \/   | |  | |   /    \    | | | |  |  | /  /          
                 / \  \   | |__| |  /  /\  \   | |_| |  |  |/  /          
                |  |  |   |  __  | /  /__\  \  |    /   |      \           
                |  |  |   | |  | | |   __   |  |    \   |  |\   \          
                \     /   | |  | | |  |  |  |  | |\  \  |  | \   \       
                 \___/    |_|  |_| |__|  |__|  |_| \__\ |__|  \__/        
                                                                              
                      - O R C A' S   B I G   F R I E N D -                    
                                      &                                       
                       - I N T E G R A L  F E E D E R -                       
                                                                              
 v1 FN, 2020, v2 2021, v3 2022-2024                                           
------------------------------------------------------------------------------


----------------------
SHARK INTEGRAL PACKAGE
----------------------

Number of atoms                             ...     55
Number of basis functions                   ...   1162
Number of shells                            ...    454
Maximum angular momentum                    ...      3
Integral batch strategy                     ... SHARK/LIBINT Hybrid
RI-J (if used) integral strategy            ... SPLIT-RIJ (Revised 2003 algorithm where possible)
Printlevel                                  ...      1
Contraction scheme used                     ... SEGMENTED contraction
Prescreening option                         ... SCHWARTZ
   Thresh                                   ... 2.500e-11
   Tcut                                     ... 2.500e-12
   Tpresel                                  ... 2.500e-12 
Coulomb Range Separation                    ... NOT USED
Exchange Range Separation                   ... NOT USED
Multipole approximations                    ... NOT USED
Finite Nucleus Model                        ... NOT USED
CABS basis                                  ... NOT available
Auxiliary Coulomb fitting basis             ... AVAILABLE
   # of basis functions in Aux-J            ...   1867
   # of shells in Aux-J                     ...    609
   Maximum angular momentum in Aux-J        ...      4
Auxiliary J/K fitting basis                 ... NOT available
Auxiliary Correlation fitting basis         ... NOT available
Auxiliary 'external' fitting basis          ... NOT available

Checking pre-screening integrals            ... done (  0.0 sec) Dimension = 454
Check shell pair data                       ... done (  0.0 sec)
Shell pair information
Shell pair cut-off parameter TPreSel        ...   2.5e-12
Total number of shell pairs                 ...    103285
Shell pairs after pre-screening             ...     60378
Total number of primitive shell pairs       ...    333372
Primitive shell pairs kept                  ...    121511
          la=0 lb=0:  14946 shell pairs
          la=1 lb=0:  17722 shell pairs
          la=1 lb=1:   5332 shell pairs
          la=2 lb=0:   8524 shell pairs
          la=2 lb=1:   5198 shell pairs
          la=2 lb=2:   1295 shell pairs
          la=3 lb=0:   3741 shell pairs
          la=3 lb=1:   2294 shell pairs
          la=3 lb=2:   1075 shell pairs
          la=3 lb=3:    251 shell pairs

Calculating one electron integrals          ... done (  0.1 sec)
done (  0.3 sec)
Calculating Nuclear repulsion               ... done (  0.0 sec) ENN=   4534.159838829654 Eh

Diagonalization of the overlap matrix:
Smallest eigenvalue                        ... 6.545e-06
Time for diagonalization                   ...    0.187 sec
Threshold for overlap eigenvalues          ... 1.000e-07
Number of eigenvalues below threshold      ... 0
Time for construction of square roots      ...    0.205 sec
Total time needed                          ...    0.425 sec

-------------------
DFT GRID GENERATION
-------------------

General Integration Accuracy     IntAcc      ... 4.959
Radial Grid Type                 RadialGrid  ... OptM3 with GC (2021)
Angular Grid (max. ang.)         AngularGrid ... 6 (Lebedev-590)
Angular grid pruning method      GridPruning ... 4 (adaptive)
Weight generation scheme         WeightScheme... mBecke (2022)
Basis function cutoff            BFCut       ... 1.0000e-11
Integration weight cutoff        WCut        ... 1.0000e-14
Partially contracted basis set               ... off
Rotationally invariant grid construction     ... off
Angular grids for H and He will be reduced by one unit
Core-polarized basis detected: some atoms will have their core
                               angular grid increased.

Total number of grid points                  ...   666181
Total number of batches                      ...    10434
Average number of points per batch           ...       63
Average number of grid points per atom       ...    12112

--------------------
COSX GRID GENERATION
--------------------

GRIDX 1
-------
General Integration Accuracy     IntAcc      ... 4.020
Radial Grid Type                 RadialGrid  ... OptM3 with GC (2021)
Angular Grid (max. ang.)         AngularGrid ... 2 (Lebedev-110)
Angular grid pruning method      GridPruning ... 4 (adaptive)
Weight generation scheme         WeightScheme... mBecke (2022)
Basis function cutoff            BFCut       ... 1.0000e-11
Integration weight cutoff        WCut        ... 1.0000e-14
Partially contracted basis set               ... on
Rotationally invariant grid construction     ... off
Angular grids for H and He will be reduced by one unit
Core-polarized basis detected: some atoms will have their core
                               angular grid increased.

Total number of grid points                  ...    76676
Total number of batches                      ...      625
Average number of points per batch           ...      122
Average number of grid points per atom       ...     1394
UseSFitting                                  ... on

GRIDX 2
-------
General Integration Accuracy     IntAcc      ... 4.338
Radial Grid Type                 RadialGrid  ... OptM3 with GC (2021)
Angular Grid (max. ang.)         AngularGrid ... 3 (Lebedev-194)
Angular grid pruning method      GridPruning ... 4 (adaptive)
Weight generation scheme         WeightScheme... mBecke (2022)
Basis function cutoff            BFCut       ... 1.0000e-11
Integration weight cutoff        WCut        ... 1.0000e-14
Partially contracted basis set               ... on
Rotationally invariant grid construction     ... off
Angular grids for H and He will be reduced by one unit
Core-polarized basis detected: some atoms will have their core
                               angular grid increased.

Total number of grid points                  ...   162745
Total number of batches                      ...     1296
Average number of points per batch           ...      125
Average number of grid points per atom       ...     2959
UseSFitting                                  ... on

GRIDX 3
-------
General Integration Accuracy     IntAcc      ... 4.871
Radial Grid Type                 RadialGrid  ... OptM3 with GC (2021)
Angular Grid (max. ang.)         AngularGrid ... 4 (Lebedev-302)
Angular grid pruning method      GridPruning ... 4 (adaptive)
Weight generation scheme         WeightScheme... mBecke (2022)
Basis function cutoff            BFCut       ... 1.0000e-11
Integration weight cutoff        WCut        ... 1.0000e-14
Partially contracted basis set               ... on
Rotationally invariant grid construction     ... off
Angular grids for H and He will be reduced by one unit
Core-polarized basis detected: some atoms will have their core
                               angular grid increased.

Total number of grid points                  ...   302482
Total number of batches                      ...     2391
Average number of points per batch           ...      126
Average number of grid points per atom       ...     5500
UseSFitting                                  ... on
Initializing property integral containers    ... done (  0.0 sec)

SHARK setup successfully completed in  14.5 seconds

Maximum memory used throughout the entire STARTUP-calculation: 211.5 MB


           ************************************************************
           *        Program running with 16 parallel MPI-processes    *
           *              working on a common directory               *
           ************************************************************
-------------------------------------------------------------------------------
                                 ORCA GUESS
                   Start orbitals & Density for SCF / CASSCF
-------------------------------------------------------------------------------

------------
SCF SETTINGS
------------
Hamiltonian:
 Density Functional     Method          .... DFT(GTOs)
 Exchange Functional    Exchange        .... PBE
   PBE kappa parameter   XKappa         ....  0.804000
   PBE mue parameter    XMuePBE         ....  0.219520
 Correlation Functional Correlation     .... PBE
   PBE beta parameter  CBetaPBE         ....  0.066725
 LDA part of GGA corr.  LDAOpt          .... PW91-LDA
 Gradients option       PostSCFGGA      .... off
 Hybrid DFT is turned on
   Fraction HF Exchange ScalHFX         ....  0.250000
   Scaling of DF-GGA-X  ScalDFX         ....  0.750000
   Scaling of DF-GGA-C  ScalDFC         ....  1.000000
   Scaling of DF-LDA-C  ScalLDAC        ....  1.000000
   Perturbative correction              ....  0.000000
   NL short-range parameter             ....  6.900000
 RI-approximation to the Coulomb term is turned on
   Number of AuxJ basis functions       .... 1867
   RIJ-COSX (HFX calculated with COS-X)).... on


General Settings:
 Integral files         IntName         .... VEFGIW-S6
 Hartree-Fock type      HFTyp           .... UHF
 Total Charge           Charge          ....   -1
 Multiplicity           Mult            ....    2
 Number of Electrons    NEL             ....  275
 Basis Dimension        Dim             .... 1162
 Nuclear Repulsion      ENuc            ....   4534.1598388297 Eh

Convergence Acceleration:
 AO-DIIS                CNVDIIS         .... on
   Start iteration      DIISMaxIt       ....    12
   Startup error        DIISStart       ....  0.200000
   # of expansion vecs  DIISMaxEq       ....     5
   Bias factor          DIISBfac        ....   1.050
   Max. coefficient     DIISMaxC        ....  10.000
 MO-DIIS                CNVKDIIS        .... off
 Trust-Rad. Augm. Hess. CNVTRAH         .... auto
   Auto Start mean grad. ratio tolernc. ....  1.125000
   Auto Start start iteration           ....    50
   Auto Start num. interpolation iter.  ....    10
   Max. Number of Micro iterations      ....    24
   Max. Number of Macro iterations      .... Maxiter - #DIIS iter
   Number of Davidson start vectors     ....     2
   Converg. threshold    (grad. norm)   ....   1.000e-05
   Grad. Scal. Fac. for Micro threshold ....   0.100
   Minimum threshold for Micro iter.    ....   1.000e-02
   NR start threshold (gradient norm)   ....   1.000e-04
   Initial trust radius                 ....   0.400
   Minimum AH scaling param. (alpha)    ....   1.000
   Maximum AH scaling param. (alpha)    .... 1000.000
   Quad. conv. algorithm                .... NR
   White noise on init. David. guess    .... on
   Maximum white noise                  ....   0.010
   Pseudo random numbers                .... off
   Inactive MOs                         .... canonical
   Orbital update algorithm             .... Taylor
   Preconditioner                       .... Diag
   Full preconditioner red. dimension   ....   250
 SOSCF                  CNVSOSCF        .... on
   Start iteration      SOSCFMaxIt      ....   150
   Startup grad/error   SOSCFStart      ....  0.003300
   Hessian update       SOSCFHessUp     .... L-BFGS
 Level Shifting         CNVShift        .... on
   Level shift para.    LevelShift      ....    0.2500
   Turn off err/grad.   ShiftErr        ....    0.0010
 Zerner damping         CNVZerner       .... off
 Static damping         CNVDamp         .... on
   Fraction old density DampFac         ....    0.7000
   Max. Damping (<1)    DampMax         ....    0.9800
   Min. Damping (>=0)   DampMin         ....    0.0000
   Turn off err/grad.   DampErr         ....    0.1000

SCF Procedure:
 Maximum # iterations   MaxIter         ....   125
 SCF integral mode      SCFMode         .... Direct
   Integral package                     .... SHARK and LIBINT hybrid scheme
 Reset frequency        DirectResetFreq ....    20
 Integral Threshold     Thresh          ....  2.500e-11 Eh
 Primitive CutOff       TCut            ....  2.500e-12 Eh

Convergence Tolerance:
 Convergence Check Mode ConvCheckMode   .... Total+1el-Energy
 Convergence forced     ConvForced      .... 0
 Energy Change          TolE            ....  1.000e-08 Eh
 1-El. energy change                    ....  1.000e-05 Eh
 Orbital Gradient       TolG            ....  1.000e-05
 Orbital Rotation angle TolX            ....  1.000e-05
 DIIS Error             TolErr          ....  5.000e-07

------------------------------
INITIAL GUESS: MODEL POTENTIAL
------------------------------
Loading Hartree-Fock densities                     ... done
Calculating cut-offs                               ... done
Initializing the effective Hamiltonian             ... done
Setting up the integral package (SHARK)            ... done
done (   0.6 sec)
Making the grid                                    ... done (   0.5 sec)
Mapping shells                                     ... done
Starting the XC term evaluation                    ... done (   0.3 sec)
  promolecular density results
     # of electrons  =    273.985067241
     EX              =   -295.077098184
     EC              =     -9.781733984
     EX+EC           =   -304.858832168
done (   0.2 sec)
done (   0.2 sec)
Back transforming the eigenvectors                 ... done (   0.1 sec)
done
                      ------------------
                      INITIAL GUESS DONE (   2.2 sec)
                      ------------------
             **** ENERGY FILE WAS UPDATED (VEFGIW-S6.en.tmp) ****
Finished Guess after   2.9 sec
Maximum memory used throughout the entire GUESS-calculation: 115.3 MB


           ************************************************************
           *        Program running with 16 parallel MPI-processes    *
           *              working on a common directory               *
           ************************************************************

-------------------------------------------------------------------------------------------
                                      ORCA LEAN-SCF
                              memory conserving SCF solver
-------------------------------------------------------------------------------------------

----------------------------------------D-I-I-S--------------------------------------------
Iteration    Energy (Eh)           Delta-E    RMSDP     MaxDP     DIISErr   Damp  Time(sec)
-------------------------------------------------------------------------------------------
               ***  Starting incremental Fock matrix formation  ***
    1    -3826.4783348149512676     0.00e+00  8.97e-04  2.39e-01  1.34e-01  0.700  35.7
Warning: op=0 Small HOMO/LUMO gap (   0.045) - skipping pre-diagonalization
         Will do a full diagonalization
    2    -3826.8411023444505190    -3.63e-01  7.70e-04  1.42e-01  4.82e-02  0.700  19.6
                               ***Turning on AO-DIIS***
    3    -3827.0032807387970024    -1.62e-01  2.45e-04  2.05e-02  2.38e-02  0.700  18.0
    4    -3827.1011022575976313    -9.78e-02  4.58e-04  1.09e-01  2.59e-02  0.000  16.7
    5    -3827.3228316645536324    -2.22e-01  1.49e-04  2.30e-02  4.45e-03  0.000  17.5
    6    -3827.3253306548222099    -2.50e-03  7.49e-05  9.82e-03  6.73e-03  0.000  15.6
    7    -3827.3259508007949989    -6.20e-04  4.20e-05  9.25e-03  5.71e-03  0.000  14.4
                              *** Initializing SOSCF ***
---------------------------------------S-O-S-C-F--------------------------------------
Iteration    Energy (Eh)           Delta-E    RMSDP     MaxDP     MaxGrad    Time(sec)
--------------------------------------------------------------------------------------
    8    -3827.3264861454035781    -5.35e-04  2.16e-05  2.71e-03  1.78e-03    14.8
               *** Restarting incremental Fock matrix formation ***
    9    -3827.3267928659233803    -3.07e-04  3.28e-05  4.89e-03  2.27e-03    35.8
   10    -3827.3271750419071395    -3.82e-04  1.26e-04  1.97e-02  1.80e-03    23.0
   11    -3827.3272124465611341    -3.74e-05  6.20e-05  1.09e-02  8.14e-03    26.1
   12    -3827.3279282709254403    -7.16e-04  7.67e-05  1.02e-02  5.27e-03    23.2
   13    -3827.3283295148148682    -4.01e-04  4.95e-05  8.89e-03  3.92e-03    26.5
               *** Scaled step length from 0.209928 to 0.200000 ***
   14    -3827.3297685658189948    -1.44e-03  1.40e-04  2.87e-02  1.47e-03    24.8
   15    -3827.3305717176290273    -8.03e-04  5.22e-05  5.14e-03  3.76e-03    26.5
   16    -3827.3312150929732525    -6.43e-04  4.50e-05  8.37e-03  1.56e-03    25.1
   17    -3827.3313941066144253    -1.79e-04  4.31e-05  7.62e-03  1.40e-03    24.1
   18    -3827.3316792934356272    -2.85e-04  3.01e-05  6.01e-03  7.29e-04    22.8
   19    -3827.3317804916887326    -1.01e-04  3.14e-05  5.80e-03  6.65e-04    22.4
   20    -3827.3319013070404253    -1.21e-04  3.65e-05  6.48e-03  8.38e-04    22.2
   21    -3827.3320079912564324    -1.07e-04  2.38e-05  5.58e-03  1.06e-03    21.7
   22    -3827.3320770431264464    -6.91e-05  2.71e-05  7.19e-03  4.42e-04    21.0
   23    -3827.3321254988122746    -4.85e-05  1.83e-05  4.02e-03  4.43e-04    22.5
   24    -3827.3321582236121685    -3.27e-05  1.29e-05  2.95e-03  3.90e-04    21.1
   25    -3827.3321930400243218    -3.48e-05  3.91e-05  1.04e-02  4.52e-04    20.0
   26    -3827.3322754473128953    -8.24e-05  8.83e-05  2.50e-02  7.58e-04    22.1
   27    -3827.3323930855194703    -1.18e-04  5.05e-05  1.23e-02  1.53e-03    23.9
   28    -3827.3325162595183428    -1.23e-04  4.28e-05  7.63e-03  1.10e-03    22.1
               *** Restarting incremental Fock matrix formation ***
   29    -3827.3326299952159388    -1.14e-04  2.09e-05  4.48e-03  5.58e-04    35.3
   30    -3827.3326552653807084    -2.53e-05  7.32e-06  1.32e-03  2.46e-04    20.7
   31    -3827.3326662950976242    -1.10e-05  1.08e-05  3.20e-03  2.30e-04    18.8
   32    -3827.3326754867202908    -9.19e-06  1.03e-05  2.87e-03  2.77e-04    19.5
   33    -3827.3326890741582247    -1.36e-05  3.43e-05  1.07e-02  2.10e-04    19.5
   34    -3827.3327146384390289    -2.56e-05  1.86e-05  6.21e-03  2.99e-04    22.0
   35    -3827.3327293057454881    -1.47e-05  1.94e-05  6.33e-03  2.77e-04    20.0
   36    -3827.3327433855820345    -1.41e-05  1.15e-05  3.32e-03  1.60e-04    20.2
   37    -3827.3327504544295152    -7.07e-06  5.81e-06  1.44e-03  1.32e-04    18.9
   38    -3827.3327532774392239    -2.82e-06  3.83e-06  8.71e-04  1.11e-04    17.9
   39    -3827.3327551522552312    -1.87e-06  3.71e-06  6.62e-04  8.06e-05    16.7
   40    -3827.3327564443343363    -1.29e-06  3.24e-06  8.01e-04  6.27e-05    16.3
   41    -3827.3327573436263265    -8.99e-07  6.36e-06  1.42e-03  6.79e-05    15.6
   42    -3827.3327585505567185    -1.21e-06  6.82e-06  1.19e-03  7.70e-05    17.4
   43    -3827.3327596937970156    -1.14e-06  7.93e-06  1.47e-03  7.31e-05    17.8
   44    -3827.3327610754467969    -1.38e-06  7.51e-06  1.36e-03  6.24e-05    18.6
   45    -3827.3327621965881917    -1.12e-06  4.53e-06  9.32e-04  5.09e-05    18.4
   46    -3827.3327626005257116    -4.04e-07  2.56e-06  5.27e-04  2.49e-05    16.7
   47    -3827.3327627488624785    -1.48e-07  1.90e-06  4.16e-04  1.70e-05    15.5
   48    -3827.3327628886117964    -1.40e-07  3.00e-06  7.88e-04  1.51e-05    14.5
               *** Restarting incremental Fock matrix formation ***
   49    -3827.3327629459008676    -5.73e-08  8.35e-06  1.77e-03  2.04e-05    34.9
   50    -3827.3327630377252717    -9.18e-08  7.31e-06  1.59e-03  2.02e-05    17.0
   51    -3827.3327631535476030    -1.16e-07  4.19e-06  7.32e-04  1.76e-05    16.6
   52    -3827.3327632055197682    -5.20e-08  5.62e-06  9.88e-04  1.68e-05    15.3
   53    -3827.3327632446935240    -3.92e-08  3.37e-06  6.52e-04  1.01e-05    16.0
   54    -3827.3327632794944293    -3.48e-08  2.35e-06  3.05e-04  6.75e-06    14.6
   55    -3827.3327633130456888    -3.36e-08  1.34e-06  2.60e-04  3.58e-06    14.7
   56    -3827.3327633389462790    -2.59e-08  1.20e-06  1.49e-04  1.16e-06    12.9
                  *** Gradient check signals convergence ***

               *****************************************************
               *                     SUCCESS                       *
               *           SCF CONVERGED AFTER  56 CYCLES          *
               *****************************************************

 done (   50.969 sec)
Old exchange energy                            :    -74.790487723 Eh
New exchange energy                            :    -74.790489614 Eh
Exchange energy change after final integration :     -0.000001892 Eh
Total energy after final integration           :  -3827.332765231 Eh
             **** ENERGY FILE WAS UPDATED (VEFGIW-S6.en.tmp) ****

----------------
TOTAL SCF ENERGY
----------------

Total Energy       :      -3827.33276523053382 Eh         -104147.01927 eV

Components:
Nuclear Repulsion  :       4534.15983882965429 Eh          123380.76177 eV
Electronic Energy  :      -8361.49260216860057 Eh         -227527.78099 eV
[...]
141:   1756.39   0.034439  174.04  0.006119  ( 0.005504 -0.077847  0.005335)
142:   2922.04   0.013938   70.43  0.001488  ( 0.029468  0.011568 -0.022053)
143:   2938.80   0.028306  143.05  0.003006  (-0.037110  0.002864  0.040254)
144:   3019.28   0.009739   49.22  0.001007  (-0.010424  0.020810  0.021560)
145:   3027.09   0.020612  104.17  0.002125  (-0.008624 -0.040396  0.020462)
146:   3038.44   0.006138   31.02  0.000630  ( 0.012187  0.010745  0.019142)
147:   3043.52   0.007526   38.04  0.000772  ( 0.017634 -0.001219 -0.021431)
148:   3065.80   0.004226   21.36  0.000430  ( 0.004677 -0.016220 -0.012049)
149:   3066.28   0.008414   42.52  0.000856  (-0.001313  0.024227  0.016361)
150:   3070.34   0.011831   59.79  0.001202  (-0.017014  0.029854  0.004661)
151:   3078.13   0.004670   23.60  0.000473  ( 0.016546  0.003841  0.013598)
152:   3105.82   0.003471   17.54  0.000349  ( 0.015506 -0.006660 -0.008000)
153:   3115.17   0.003058   15.46  0.000306  (-0.010518  0.009408  0.010356)
154:   3123.08   0.002561   12.94  0.000256  ( 0.009730 -0.007204 -0.010458)
155:   3135.31   0.009257   46.78  0.000921  ( 0.030213 -0.002117 -0.002006)
156:   3140.86   0.005878   29.70  0.000584  (-0.015859 -0.002417  0.018073)
157:   3146.59   0.006111   30.88  0.000606  ( 0.004176 -0.024261  0.000210)
158:   3182.46   0.002883   14.57  0.000283  (-0.008133 -0.010135  0.010668)
159:   3184.23   0.010298   52.04  0.001009  ( 0.031767  0.000232 -0.000015)
160:   3190.38   0.004311   21.79  0.000422  (-0.014529  0.005116  0.013579)
161:   3203.70   0.006301   31.84  0.000614  ( 0.023234  0.001339  0.008494)
162:   3205.62   0.003727   18.84  0.000363  ( 0.016297 -0.003852 -0.009079)
163:   3216.86   0.001051    5.31  0.000102  (-0.001439  0.009570 -0.002884)
164:   3230.00   0.008101   40.94  0.000783  ( 0.014184  0.009434 -0.022193)

* The epsilon (eps) is given for a Dirac delta lineshape.
** The dipole moment derivative (T) already includes vibrational overlap.

The first frequency considered to be a vibration is 6
The total number of vibrations considered is 159


--------------------------
THERMOCHEMISTRY AT 298.15K
--------------------------

Temperature         ...   298.15 K
Pressure            ...     1.00 atm
Total Mass          ...   533.67 AMU
Quasi RRHO          ...     True
Cut-Off Frequency   ...     1.00 cm^-1

Throughout the following assumptions are being made:
  (1) The electronic state is orbitally nondegenerate
      but the spin degeneracy is treated
  (2) There are no thermally accessible electronically excited states
  (3) Hindered rotations indicated by low frequency modes are not
      treated as such but are treated as vibrations and this may
      cause some error
  (4) All equations used are the standard statistical mechanics
      equations for an ideal gas
  (5) All vibrations are strictly harmonic

freq.      21.79  E(vib)   ...       0.56 
freq.      22.57  E(vib)   ...       0.56 
freq.      30.61  E(vib)   ...       0.55 
freq.      43.91  E(vib)   ...       0.53 
freq.      48.38  E(vib)   ...       0.53 
freq.      59.15  E(vib)   ...       0.51 
freq.      61.67  E(vib)   ...       0.51 
freq.      75.71  E(vib)   ...       0.49 
freq.      79.57  E(vib)   ...       0.49 
freq.      87.12  E(vib)   ...       0.48 
freq.      93.71  E(vib)   ...       0.47 
freq.     112.63  E(vib)   ...       0.45 
freq.     119.74  E(vib)   ...       0.44 
freq.     123.49  E(vib)   ...       0.43 
freq.     139.51  E(vib)   ...       0.42 
freq.     151.21  E(vib)   ...       0.40 
freq.     159.60  E(vib)   ...       0.39 
freq.     163.86  E(vib)   ...       0.39 
freq.     173.32  E(vib)   ...       0.38 
freq.     183.34  E(vib)   ...       0.37 
freq.     203.15  E(vib)   ...       0.35 
freq.     221.24  E(vib)   ...       0.33 
freq.     230.70  E(vib)   ...       0.32 
freq.     240.14  E(vib)   ...       0.31 
freq.     241.89  E(vib)   ...       0.31 
freq.     251.19  E(vib)   ...       0.30 
freq.     271.03  E(vib)   ...       0.29 
freq.     295.45  E(vib)   ...       0.27 
freq.     298.42  E(vib)   ...       0.26 
freq.     299.06  E(vib)   ...       0.26 
freq.     319.08  E(vib)   ...       0.25 
freq.     331.27  E(vib)   ...       0.24 
freq.     338.61  E(vib)   ...       0.23 
freq.     347.27  E(vib)   ...       0.23 
freq.     368.47  E(vib)   ...       0.21 
freq.     393.13  E(vib)   ...       0.20 
freq.     402.68  E(vib)   ...       0.19 
freq.     416.94  E(vib)   ...       0.18 
freq.     419.90  E(vib)   ...       0.18 
freq.     421.93  E(vib)   ...       0.18 
freq.     456.68  E(vib)   ...       0.16 
freq.     467.45  E(vib)   ...       0.16 
freq.     494.25  E(vib)   ...       0.14 
freq.     501.20  E(vib)   ...       0.14 
freq.     516.58  E(vib)   ...       0.13 
freq.     529.84  E(vib)   ...       0.13 
freq.     558.91  E(vib)   ...       0.12 
freq.     568.03  E(vib)   ...       0.11 
freq.     581.98  E(vib)   ...       0.11 
freq.     594.44  E(vib)   ...       0.10 
freq.     602.49  E(vib)   ...       0.10 
freq.     623.91  E(vib)   ...       0.09 
freq.     636.56  E(vib)   ...       0.09 
freq.     655.00  E(vib)   ...       0.08 
freq.     708.90  E(vib)   ...       0.07 
freq.     742.27  E(vib)   ...       0.06 
freq.     766.52  E(vib)   ...       0.06 
freq.     777.81  E(vib)   ...       0.05 
freq.     778.95  E(vib)   ...       0.05 
freq.     797.06  E(vib)   ...       0.05 
freq.     809.21  E(vib)   ...       0.05 
freq.     815.31  E(vib)   ...       0.05 
freq.     817.46  E(vib)   ...       0.05 
freq.     843.72  E(vib)   ...       0.04 
freq.     877.08  E(vib)   ...       0.04 
freq.     879.54  E(vib)   ...       0.04 
freq.     896.25  E(vib)   ...       0.03 
freq.     914.49  E(vib)   ...       0.03 
freq.     916.28  E(vib)   ...       0.03 
freq.     934.68  E(vib)   ...       0.03 
freq.     960.81  E(vib)   ...       0.03 
freq.     970.16  E(vib)   ...       0.03 
freq.     973.37  E(vib)   ...       0.03 
freq.     982.59  E(vib)   ...       0.02 
freq.     987.50  E(vib)   ...       0.02 
freq.     996.77  E(vib)   ...       0.02 
freq.    1004.15  E(vib)   ...       0.02 
freq.    1010.82  E(vib)   ...       0.02 
freq.    1016.52  E(vib)   ...       0.02 
freq.    1017.16  E(vib)   ...       0.02 
freq.    1041.45  E(vib)   ...       0.02 
freq.    1044.90  E(vib)   ...       0.02 
freq.    1056.16  E(vib)   ...       0.02 
freq.    1060.53  E(vib)   ...       0.02 
freq.    1070.22  E(vib)   ...       0.02 
freq.    1075.22  E(vib)   ...       0.02 
freq.    1084.39  E(vib)   ...       0.02 
freq.    1095.90  E(vib)   ...       0.02 
freq.    1108.00  E(vib)   ...       0.02 
freq.    1126.94  E(vib)   ...       0.01 
freq.    1130.10  E(vib)   ...       0.01 
freq.    1145.03  E(vib)   ...       0.01 
freq.    1173.93  E(vib)   ...       0.01 
freq.    1176.86  E(vib)   ...       0.01 
freq.    1204.89  E(vib)   ...       0.01 
freq.    1215.99  E(vib)   ...       0.01 
freq.    1216.74  E(vib)   ...       0.01 
freq.    1235.66  E(vib)   ...       0.01 
freq.    1246.98  E(vib)   ...       0.01 
freq.    1254.95  E(vib)   ...       0.01 
freq.    1260.27  E(vib)   ...       0.01 
freq.    1277.22  E(vib)   ...       0.01 
freq.    1317.46  E(vib)   ...       0.01 
freq.    1320.66  E(vib)   ...       0.01 
freq.    1323.59  E(vib)   ...       0.01 
freq.    1338.12  E(vib)   ...       0.01 
freq.    1351.09  E(vib)   ...       0.01 
freq.    1357.02  E(vib)   ...       0.01 
freq.    1369.16  E(vib)   ...       0.01 
freq.    1373.89  E(vib)   ...       0.01 
freq.    1383.02  E(vib)   ...       0.01 
freq.    1389.98  E(vib)   ...       0.00 
freq.    1401.25  E(vib)   ...       0.00 
freq.    1406.88  E(vib)   ...       0.00 
freq.    1411.72  E(vib)   ...       0.00 
freq.    1440.71  E(vib)   ...       0.00 
freq.    1444.34  E(vib)   ...       0.00 
freq.    1459.04  E(vib)   ...       0.00 
freq.    1460.90  E(vib)   ...       0.00 
freq.    1470.71  E(vib)   ...       0.00 
freq.    1474.15  E(vib)   ...       0.00 
freq.    1478.92  E(vib)   ...       0.00 
freq.    1480.54  E(vib)   ...       0.00 
freq.    1482.51  E(vib)   ...       0.00 
freq.    1499.17  E(vib)   ...       0.00 
freq.    1522.26  E(vib)   ...       0.00 
freq.    1528.58  E(vib)   ...       0.00 
freq.    1534.07  E(vib)   ...       0.00 
freq.    1583.11  E(vib)   ...       0.00 
freq.    1631.48  E(vib)   ...       0.00 
freq.    1641.25  E(vib)   ...       0.00 
freq.    1658.14  E(vib)   ...       0.00 
freq.    1672.63  E(vib)   ...       0.00 
freq.    1678.77  E(vib)   ...       0.00 
freq.    1710.97  E(vib)   ...       0.00 
freq.    1756.39  E(vib)   ...       0.00 
freq.    2922.04  E(vib)   ...       0.00 
freq.    2938.80  E(vib)   ...       0.00 
freq.    3019.28  E(vib)   ...       0.00 
freq.    3027.09  E(vib)   ...       0.00 
freq.    3038.44  E(vib)   ...       0.00 
freq.    3043.52  E(vib)   ...       0.00 
freq.    3065.80  E(vib)   ...       0.00 
freq.    3066.28  E(vib)   ...       0.00 
freq.    3070.34  E(vib)   ...       0.00 
freq.    3078.13  E(vib)   ...       0.00 
freq.    3105.82  E(vib)   ...       0.00 
freq.    3115.17  E(vib)   ...       0.00 
freq.    3123.08  E(vib)   ...       0.00 
freq.    3135.31  E(vib)   ...       0.00 
freq.    3140.86  E(vib)   ...       0.00 
freq.    3146.59  E(vib)   ...       0.00 
freq.    3182.46  E(vib)   ...       0.00 
freq.    3184.23  E(vib)   ...       0.00 
freq.    3190.38  E(vib)   ...       0.00 
freq.    3203.70  E(vib)   ...       0.00 
freq.    3205.62  E(vib)   ...       0.00 
freq.    3216.86  E(vib)   ...       0.00 
freq.    3230.00  E(vib)   ...       0.00 

------------
INNER ENERGY
------------

The inner energy is: U= E(el) + E(ZPE) + E(vib) + E(rot) + E(trans)
    E(el)   - is the total energy from the electronic structure calculation
              = E(kin-el) + E(nuc-el) + E(el-el) + E(nuc-nuc)
    E(ZPE)  - the the zero temperature vibrational energy from the frequency calculation
    E(vib)  - the the finite temperature correction to E(ZPE) due to population
              of excited vibrational states
    E(rot)  - is the rotational thermal energy
    E(trans)- is the translational thermal energy

Summary of contributions to the inner energy U:
Electronic energy                ...  -3827.48180638 Eh
Zero point energy                ...      0.42453594 Eh     266.40 kcal/mol
Thermal vibrational correction   ...      0.02790028 Eh      17.51 kcal/mol
Thermal rotational correction    ...      0.00141627 Eh       0.89 kcal/mol
Thermal translational correction ...      0.00141627 Eh       0.89 kcal/mol
-----------------------------------------------------------------------
Total thermal energy                  -3827.02653762 Eh


Summary of corrections to the electronic energy:
(perhaps to be used in another calculation)
Total thermal correction                  0.03073282 Eh      19.29 kcal/mol
Non-thermal (ZPE) correction              0.42453594 Eh     266.40 kcal/mol
-----------------------------------------------------------------------
Total correction                          0.45526876 Eh     285.68 kcal/mol


--------
ENTHALPY
--------

The enthalpy is H = U + kB*T
                kB is Boltzmann's constant
Total thermal energy              ...  -3827.02653762 Eh 
Thermal Enthalpy correction       ...      0.00094421 Eh       0.59 kcal/mol
-----------------------------------------------------------------------
Total Enthalpy                    ...  -3827.02559341 Eh


Note: Only C1 symmetry has been detected, increase convergence thresholds 
      if your molecule has a higher symmetry. Symmetry factor of 1.0 is   
      used for the rotational entropy correction. 
 

Note: Rotational entropy computed according to Herzberg 
Infrared and Raman Spectra, Chapter V,1, Van Nostrand Reinhold, 1945 
Point Group:  C1, Symmetry Number:   1  
Rotational constants in cm-1:     0.005100     0.003098     0.002345 

Vibrational entropy computed according to the QRRHO of S. Grimme
Chem.Eur.J. 2012 18 9955 using a reference frequency of 100.0 cm-1


-------
ENTROPY
-------

The entropy contributions are T*S = T*(S(el)+S(vib)+S(rot)+S(trans))
     S(el)   - electronic entropy
     S(vib)  - vibrational entropy
     S(rot)  - rotational entropy
     S(trans)- translational entropy
The entropies will be listed as multiplied by the temperature to get
units of energy

Electronic entropy                ...      0.00065446 Eh      0.41 kcal/mol
Vibrational entropy               ...      0.05008782 Eh     31.43 kcal/mol
Rotational entropy                ...      0.01758873 Eh     11.04 kcal/mol
Translational entropy             ...      0.02124295 Eh     13.33 kcal/mol
-----------------------------------------------------------------------
Final entropy term                ...      0.08957396 Eh     56.21 kcal/mol

In case the symmetry of your molecule has not been determined correctly
or in case you have a reason to use a different symmetry number we print 
out the resulting rotational entropy values for sn=1,12:

 non-linear molecules -----------------------------------
|  sn= 1 | S(rot)=       0.01758873 Eh     11.04 kcal/mol|
|  sn= 2 | S(rot)=       0.01693427 Eh     10.63 kcal/mol|
|  sn= 3 | S(rot)=       0.01655144 Eh     10.39 kcal/mol|
|  sn= 4 | S(rot)=       0.01627982 Eh     10.22 kcal/mol|
|  sn= 5 | S(rot)=       0.01606913 Eh     10.08 kcal/mol|
|  sn= 6 | S(rot)=       0.01589698 Eh      9.98 kcal/mol|
|  sn= 7 | S(rot)=       0.01575144 Eh      9.88 kcal/mol|
|  sn= 8 | S(rot)=       0.01562536 Eh      9.81 kcal/mol|
|  sn= 9 | S(rot)=       0.01551415 Eh      9.74 kcal/mol|
|  sn=10 | S(rot)=       0.01541467 Eh      9.67 kcal/mol|
|  sn=11 | S(rot)=       0.01532468 Eh      9.62 kcal/mol|
|  sn=12 | S(rot)=       0.01524253 Eh      9.56 kcal/mol|
 linear molecules ---------------------------------------
|  Dinfh | S(rot)=       0.01104328 Eh      6.93 kcal/mol|
|  Cinfv | S(rot)=       0.01169773 Eh      7.34 kcal/mol|
 --------------------------------------------------------


-------------------
GIBBS FREE ENERGY
-------------------

The Gibbs free energy is G = H - T*S

Total enthalpy                    ...  -3827.02559341 Eh 
Total entropy correction          ...     -0.08957396 Eh    -56.21 kcal/mol
-----------------------------------------------------------------------
Final Gibbs free energy         ...  -3827.11516737 Eh

For completeness - the Gibbs free energy minus the electronic energy
G-E(el)                           ...      0.36663901 Eh    230.07 kcal/mol


Maximum memory used throughout the entire PROP-calculation: 1758.9 MB

--------------------------------
SUGGESTED CITATIONS FOR THIS RUN
--------------------------------

Below you find a list of papers that are relevant to this ORCA run
We neither can nor want to force you to cite these papers, but we appreciate if you do
You receive ORCA, which is the product of decades of hard work by many enthusiastic individuals, for free
The only thing we kindly ask in return is that you cite our papers,
We deeply appreciate it, if you show your appreciation for ORCA by not just citing the generic ORCA reference.

Please note that relegating all ORCA citations to the supporting information does *not* help us.
SI sections are not indexed - citations you put there will not count into any citation statistics
But we need these citations in order to attract the funding resources that allow us to do what we are doing

Therefore, if you are a happy ORCA user, please consider citing a few of the papers listed below in the main body of your paper

In addition to the list printed below, the program has created the file VEFGIW-S6.bibtex that contains the list in bibtex format
You can import this file easily into all common literature databanks and citation aid programs


List of essential papers. We consider these as the minimum necessary citations

  1. Neese,F.
     Software update: the ORCA program system, version 5.0
     WIRES Comput. Molec. Sci., 2022 12(1)e1606
     doi.org/10.1002/wcms.1606

List of papers to cite with high priority. The work reported in these papers was absolutely
necessary for this run to complete.
Our perspective: the developers of density functionals and basis sets usually get cited in chemistry papers
Good! But without the algorithms to do something with them, the functionals or basis sets would not do anything.
Hence, in our opinion, the algorithm design and method developments papers are equally worthy of getting cited

  1. Neese,F.
     An improvement of the resolution of the identity approximation for the formation of the Coulomb matrix
     J. Comp. Chem., 2003 24(14)1740-1747
     doi.org/10.1002/jcc.10318
  2. Neese,F.; Wennmohs,F.; Hansen,A.; Becker,U.
     Efficient, approximate and parallel Hartree-Fock and hybrid DFT calculations. A 'chain-of-spheres' algorithm for the Hartree-Fock exchange
     Chem. Phys., 2009 356(1-3)98-109
     doi.org/10.1016/j.chemphys.2008.10.036
  3. Bykov,D.; Petrenko,T.; Izsak,R.; Kossmann,S.; Becker,U.; Valeev,E.; Neese,F.
     Efficient implementation of the analytic second derivatives of Hartree-Fock and hybrid DFT energies: a detailed analysis of different approximations
     Molec. Phys., 2015 113 1961-1977
     doi.org/10.1080/00268976.2015.1025114
  4. Helmich-Paris,B.; de Souza,B.; Neese,F.; Izsák,R.
     An improved chain of spheres for exchange algorithm
     J. Chem. Phys., 2021 155 104109
     doi.org/doi: 10.1063/5.0058766.
  5. Neese,F.
     The SHARK Integral Generation and Digestion System
     J. Comp. Chem., 2022  1-16
     doi.org/10.1002/jcc.26942

List of suggested additional citations. These are papers that are important in the 'surrounding' of 
of this run, or papers that preceded the highly important papers. If you like your results we are grateful for a citation.

  1. Izsak,R.; Neese,F.
     An overlap fitted chain of spheres exchange method
     J. Chem. Phys., 2011 135 144105
     doi.org/10.1063/1.3646921
  2. Izsak,R.; Hansen,A.; Neese,F.
     The resolution of identity and chain of spheres approximations for the LPNO-CCSD singles Fock term
     Molec. Phys., 2012 110 2413-2417
     doi.org/10.1080/00268976.2012.687466
  3. Neese,F.
     The ORCA program system
     WIRES Comput. Molec. Sci., 2012 2(1)73-78
     doi.org/10.1002/wcms.81
  4. Izsak,R.; Neese,F.; Klopper,W.
     Robust fitting techniques in the chain of spheres approximation to the Fock exchange: The role of the complementary space
     J. Chem. Phys., 2013 139 
     doi.org/10.1063/1.4819264
  5. Neese,F.
     Software update: the ORCA program system, version 4.0
     WIRES Comput. Molec. Sci., 2018 8(1)1-6
     doi.org/10.1002/wcms.1327
  6. Neese,F.; Wennmohs,F.; Becker,U.; Riplinger,C.
     The ORCA quantum chemistry program package
     J. Chem. Phys., 2020 152 Art. No. L224108
     doi.org/10.1063/5.0004608

List of optional additional citations

  1. Neese,F.
     Approximate second-order SCF convergence for spin unrestricted wavefunctions
     Chem. Phys. Lett., 2000 325(1-3)93-98
     doi.org/10.1016/s0009-2614(00)00662-x

Timings for individual modules:

Sum of individual times          ...    51661.282 sec (= 861.021 min)
Startup calculation              ...      669.452 sec (=  11.158 min)   1.3 %
SCF iterations                   ...    20432.968 sec (= 340.549 min)  39.6 %
Property integrals               ...     5787.303 sec (=  96.455 min)  11.2 %
SCF Response                     ...    19771.971 sec (= 329.533 min)  38.3 %
Property calculations            ...     1638.652 sec (=  27.311 min)   3.2 %
SCF Gradient evaluation          ...     3358.614 sec (=  55.977 min)   6.5 %
Geometry relaxation              ...        2.321 sec (=   0.039 min)   0.0 %
                             ****ORCA TERMINATED NORMALLY****
TOTAL RUN TIME: 0 days 14 hours 22 minutes 39 seconds 224 msec
