
                                 *****************
                                 * O   R   C   A *
                                 *****************

                                            #,                                       
                                            ###                                      
                                            ####                                     
                                            #####                                    
                                            ######                                   
                                           ########,                                 
                                     ,,################,,,,,                         
                               ,,#################################,,                 
                          ,,##########################################,,             
                       ,#########################################, ''#####,          
                    ,#############################################,,   '####,        
                  ,##################################################,,,,####,       
                ,###########''''           ''''###############################       
              ,#####''   ,,,,##########,,,,          '''####'''          '####       
            ,##' ,,,,###########################,,,                        '##       
           ' ,,###''''                  '''############,,,                           
         ,,##''                                '''############,,,,        ,,,,,,###''
      ,#''                                            '''#######################'''  
     '                                                          ''''####''''         
             ,#######,   #######,   ,#######,      ##                                
            ,#'     '#,  ##    ##  ,#'     '#,    #''#        ,####,   ,####,        
            ##       ##  ##   ,#'  ##            #'  '#       #'       #'  '#        
            ##       ##  #######   ##           ,######,      #####,   #    #        
            '#,     ,#'  ##    ##  '#,     ,#' ,#      #,     #,   #   #,  ,#        
             '#######'   ##     ##  '#######'  #'      '#     '####' # '####'        



                #########################################################
                #                        -***-                          #
                #          Department of theory and spectroscopy        #
                #                                                       #
                #                      Frank Neese                      #
                #                                                       #
                #     Directorship, Architecture, Infrastructure        #
                #                    SHARK, DRIVERS                     #
                #        Core code/Algorithms in most modules           #
                #                                                       #
                #        Max Planck Institute fuer Kohlenforschung      #
                #                Kaiser Wilhelm Platz 1                 #
                #                 D-45470 Muelheim/Ruhr                 #
                #                      Germany                          #
                #                                                       #
                #                  All rights reserved                  #
                #                        -***-                          #
                #########################################################


                         Program Version 6.0.1  -  RELEASE   -


 With contributions from (in alphabetic order):
[Max-Planck-Institut fuer Kohlenforschung]                               
  Daniel Aravena         : Magnetic Suceptibility                        
  Michael Atanasov       : Ab Initio Ligand Field Theory (pilot matlab implementation)
  Alexander A. Auer      : GIAO ZORA, VPT2 properties, NMR spectrum      
  Ute Becker             : All parallelization in ORCA, NUMFREQ, NUMCALC 
  Giovanni Bistoni       : ED, misc. LED, open-shell LED, HFLD           
  Martin Brehm           : Molecular dynamics                            
  Dmytro Bykov           : pre 5.0 version of the SCF Hessian            
  Marcos Casanova-Páez   : Triplet and SCS-CIS(D). UHF-(DLPNO)-IP/EA/STEOM-CCSD. UHF-CVS-IP/STEOM-CCSD   
  Vijay G. Chilkuri      : MRCI spin determinant printing, contributions to CSF-ICE 
  Pauline Colinet        : FMM embedding                                 
  Dipayan Datta          : RHF DLPNO-CCSD density                        
  Achintya Kumar Dutta   : EOM-CC, STEOM-CC                              
  Nicolas Foglia         : Exact transition moments, OPA infrastructure, MCD improvements    
  Dmitry Ganyushin       : Spin-Orbit,Spin-Spin,Magnetic field MRCI      
  Miquel Garcia-Rates    : C-PCM and meta-GGA Hessian, CCSD/C-PCM, Gaussian charge scheme 
  Tiago L. C. Gouveia    : GS-ROHF, GS-ROCIS                             
  Yang Guo               : DLPNO-NEVPT2, F12-NEVPT2, CIM, IAO-localization        
  Andreas Hansen         : Spin unrestricted coupled pair/coupled cluster methods 
  Ingolf Harden          : AUTO-CI MPn and infrastructure                
  Benjamin Helmich-Paris : MC-RPA, TRAH-(SCF,CASSCF), AVAS, COSX integrals, SCF dyn. polar. 
  Lee Huntington         : MR-EOM, pCC                                   
  Robert Izsak           : Overlap fitted RIJCOSX, COSX-SCS-MP3, EOM     
  Riya Kayal             : Wick's Theorem for AUTO-CI, AUTO-CI UHF-CCSDT 
  Emily Kempfer          : AUTO-CI, RHF CISDT and CCSDT                  
  Christian Kollmar      : KDIIS, OOCD, Brueckner-CCSD(T), CCSD density, CASPT2, CASPT2-K, improved NEVPT2 
  Axel Koslowski         : Symmetry handling                             
  Simone Kossmann        : meta-GGA functionals, TD-DFT gradient, OOMP2, (MP2 Hessian; deprecated post 5.0) 
  Lucas Lang             : DCDCAS                                        
  Marvin Lechner         : AUTO-CI (C++ implementation), FIC-MRCC        
  Spencer Leger          : CASSCF response                               
  Dagmar Lenk            : GEPOL surface, SMD, ORCA-2-JSON               
  Dimitrios Liakos       : Extrapolation schemes; Compound Job, initial MDCI parallelization 
  Dimitrios Manganas     : Further ROCIS development; embedding schemes. LFT, Crystal Embedding 
  Dimitrios Pantazis     : SARC Basis sets                               
  Anastasios Papadopoulos: AUTO-CI, single reference methods and gradients 
  Taras Petrenko         : pre 6.0 DFT Hessian and TD-DFT gradient, (ASA, deprecated), ECA, 1-Electron XAS/XES, NRVS 
  Peter Pinski           : DLPNO-MP2, DLPNO-MP2 Gradient                 
  Christoph Reimann      : Effective Core Potentials                     
  Marius Retegan         : Local ZFS, SOC                                
  Christoph Riplinger    : Optimizer, TS searches, QM/MM, DLPNO-CCSD(T), (RO)-DLPNO pert. Triples 
  Michael Roemelt        : Original ROCIS implementation                 
  Masaaki Saitow         : Open-shell DLPNO-CCSD energy and density      
  Barbara Sandhoefer     : DKH picture change effects                    
  Kantharuban Sivalingam : CASSCF convergence/infrastructure, NEVPT2 and variants, FIC-MRCI 
  Bernardo de Souza      : ESD, SOC TD-DFT                               
  Georgi L. Stoychev     : AutoAux, RI-MP2 NMR, DLPNO-MP2 response, X2C  
  Van Anh Tran           : RI-MP2 g-tensors                              
  Willem Van den Heuvel  : Paramagnetic NMR                              
  Zikuan Wang            : NOTCH, Electric field optimization            
  Frank Wennmohs         : Technical directorship and infrastructure     
  Hang Xu                : AUTO-CI-Response properties                   
                                                                         
[FACCTs GmbH]                                                            
  Markus Bursch, Miquel Garcia-Rates, Christoph Riplinger, Bernardo de Souza, Georgi L. Stoychev 
                                                                 
  APM, Basis sets (HGBS, AHGBS, def-TZVP (Ac-Lr), def2-XVPD (La-Lu)), CI-OPT, improved COSX, DLPNO-Multilevel,           
  DOCKER, DRACO, updates on ESD, GOAT, IRC, LR-CPCM, MBIS, meta-GGA TD-DFT gradient, ML-optimized integration grids, 
  MM, NACMEs, nearIR, NEB, NEB-TS, NL-DFT gradient (VV10), 2- and 3-layer-ONIOM, interface openCOSMO-RS, QMMM,   
  Crystal-QMMM, SF, symmetry and pop. for TD-DFT, r2SCAN hybrids, SOLVATOR                                   
                                                                         
[Other institutions]                                                     
  V. Asgeirsson          : NEB                                           
  Christoph Bannwarth    : sTDA-DFT, sTD-DFT, PBEh-3c, B97-3c, D3        
  Sebastian Ehlert       : rSCAN, r2SCAN, r2SCAN-3c, D4, dhf basis sets  
  Marvin Friede          : D4 for Fr, Ra, Ac-Lr                          
  Lars Goerigk           : TD-DFT with DH, B97 family of functionals     
  Stefan Grimme          : VdW corrections, initial TS optimization, DFT functionals, gCP, sTDA/sTD-DF 
  Waldemar Hujo          : DFT-NL                                        
  H. Jonsson             : NEB                                           
  Holger Kruse           : gCP                                           
  Marcel Mueller         : wB97X-3c, vDZP basis set                      
  Hagen Neugebauer       : wr2SCAN                                       
  Tobias Risthaus        : range-separated hybrid DFT                    
  Lukas Wittmann         : regularized MP2, r2SCAN double-hybrids, wr2SCAN        
                                                                         
We gratefully acknowledge several colleagues who have allowed us to      
interface, adapt or use parts of their codes:                            
  Ed Valeev, F. Pavosevic, A. Kumar             : LibInt (2-el integral package), F12 methods 
  Garnet Chan, S. Sharma, J. Yang, R. Olivares  : DMRG                   
  Ulf Ekstrom                                   : XCFun DFT Library      
  Mihaly Kallay                                 : mrcc  (arbitrary order and MRCC methods)
  Frank Weinhold                                : gennbo (NPA and NBO analysis)           
  Simon Mueller                                 : openCOSMO-RS                            
  Christopher J. Cramer and Donald G. Truhlar   : smd solvation model                     
  S Lehtola, MJT Oliveira, MAL Marques          : LibXC Library                           
  Liviu Ungur et al                             : ANISO software                          


 Your calculation uses the libint2 library for the computation of 2-el integrals
 For citations please refer to: http://libint.valeyev.net

 Your ORCA version has been built with support for libXC version: 6.2.2
 For citations please refer to: https://libxc.gitlab.io

 This ORCA versions uses:
   CBLAS   interface :  Fast vector & matrix operations
   LAPACKE interface :  Fast linear algebra routines
   SCALAPACK package :  Parallel linear algebra routines
   Shared memory     :  Shared parallel matrices
   BLAS/LAPACK       :  OpenBLAS 0.3.27  USE64BITINT DYNAMIC_ARCH NO_AFFINITY Cooperlake SINGLE_THREADED
        Core in use  :  Cooperlake
   Copyright (c) 2011-2014, The OpenBLAS Project


NOTE: MaxCore=3600 MB was set to SCF,MP2,MDCI,CIPSI,MRCI and CIS
      => If you want to overwrite this, your respective input block should be placed after the MaxCore statement
Warning: RI is on but no J-basis has been assigned. Assigning Def2/J (nothing to worry about!)
================================================================================

----- Orbital basis set information -----
Your calculation utilizes the basis: def2-TZVP
   F. Weigend and R. Ahlrichs, Phys. Chem. Chem. Phys. 7, 3297 (2005).

----- AuxJ basis set information -----
Your calculation utilizes the auxiliary basis: def2/J
   F. Weigend, Phys. Chem. Chem. Phys. 8, 1057 (2006).

================================================================================
                                        WARNINGS
                       Please study these warnings very carefully!
================================================================================


WARNING: your system is open-shell and RHF/RKS was chosen
  ===> : WILL SWITCH to UHF/UKS


WARNING: Geometry Optimization
  ===> : Switching off AutoStart
         For restart on a previous wavefunction, please use MOREAD

================================================================================
                                       INPUT FILE
================================================================================
NAME = VOFZEV-S6.inp
|  1> ! PBE0 def2-TZVP  Opt Freq DEFGRID3
|  2> 
|  3> %maxcore 3600
|  4> 
|  5> %pal
|  6>     nprocs 16
|  7> end
|  8> 
|  9> *xyz 1 2
| 10> Fe 0.0362 11.2929 10.0586
| 11> Cl 0.9929 13.3682 9.9829
| 12> Cl -0.337 10.5565 12.2002
| 13> P -2.831 10.2466 9.0921
| 14> P 2.0297 10.0988 7.8455
| 15> O -1.6612 11.1894 9.0207
| 16> O 1.171 9.9799 9.0737
| 17> C -4.0978 10.8267 10.2272
| 18> C -2.3453 8.6095 9.6402
| 19> C -3.5951 10.0652 7.4812
| 20> C 3.5253 11.0201 8.1839
| 21> C 1.1766 10.918 6.5039
| 22> C 2.4974 8.499 7.2531
| 23> H 0.8895 11.9213 6.8151
| 24> H 1.8356 10.9808 5.6392
| 25> H 0.2852 10.3507 6.2404
| 26> H 1.6038 7.9286 7.004
| 27> H 3.1179 8.6079 6.3648
| 28> H 3.0585 7.9755 8.0258
| 29> H 4.0974 10.5116 8.9585
| 30> H 4.1232 11.0877 7.2763
| 31> H 3.2656 12.0218 8.5231
| 32> H -1.902 8.6756 10.6326
| 33> H -3.2216 7.9639 9.6763
| 34> H -1.6174 8.1948 8.9444
| 35> H -2.8658 9.6694 6.776
| 36> H -4.4383 9.3799 7.5545
| 37> H -3.9456 11.0362 7.1343
| 38> H -4.4641 11.7976 9.8969
| 39> H -4.9218 10.115 10.2461
| 40> H -3.675 10.9191 11.2265
| 41> *
| 42> 
| 43>                          ****END OF INPUT****
================================================================================

                       *****************************
                       * Geometry Optimization Run *
                       *****************************

Geometry optimization settings:
Update method            Update   .... BFGS
Choice of coordinates    CoordSys .... (2022) Redundant Internals
Initial Hessian          InHess   .... Almloef's Model
Max. no of cycles        MaxIter  .... 93

Convergence Tolerances:
Energy Change            TolE     ....  5.0000e-06 Eh
Max. Gradient            TolMAXG  ....  3.0000e-04 Eh/bohr
RMS Gradient             TolRMSG  ....  1.0000e-04 Eh/bohr
Max. Displacement        TolMAXD  ....  4.0000e-03 bohr
RMS Displacement         TolRMSD  ....  2.0000e-03 bohr
Strict Convergence                .... False

------------------------------------------------------------------------------
                        ORCA OPTIMIZATION COORDINATE SETUP
------------------------------------------------------------------------------

The optimization will be done in redundant internal coordinates (2022)
Making redundant internal coordinates   ...  (2022 redundants) done
Evaluating the initial hessian          ...  (Almloef) done
Evaluating the coordinates              ...  done
Calculating the B-matrix                .... done
Calculating the G-matrix                .... done
Diagonalizing the G-matrix              .... done
Small eigenvalue found = 1.622e-02
Small eigenvalue found = 2.365e-02
Small eigenvalue found = 2.806e-02
The first mode is                       ....   92
The number of degrees of freedom        ....   87

    -----------------------------------------------------------------
                    Redundant Internal Coordinates


    -----------------------------------------------------------------
         Definition                    Initial Value    Approx d2E/dq
    -----------------------------------------------------------------
      1. B(Cl  1,Fe  0)                  2.2865         0.526772   
      2. B(Cl  2,Fe  0)                  2.2952         0.510089   
      3. B(P   3,Fe  0)                  3.2015         0.027365   
      4. B(P   4,Fe  0)                  3.2090         0.026622   
      5. B(O   5,P   3)                  1.5041         1.236759   
      6. B(O   5,Fe  0)                  1.9923         0.619622   
      7. B(O   6,Fe  0)                  1.9954         0.612441   
      8. B(O   6,P   4)                  1.5033         1.240426   
      9. B(C   7,P   3)                  1.7972         0.470598   
     10. B(C   8,P   3)                  1.7934         0.477063   
     11. B(C   9,P   3)                  1.7921         0.479346   
     12. B(C  10,P   4)                  1.7889         0.485097   
     13. B(C  11,P   4)                  1.7885         0.485780   
     14. B(C  12,P   4)                  1.7689         0.522043   
     15. B(H  13,C  11)                  1.0890         0.361449   
     16. B(H  14,C  11)                  1.0890         0.361419   
     17. B(H  15,C  11)                  1.0890         0.361465   
     18. B(H  16,C  12)                  1.0890         0.361421   
     19. B(H  17,C  12)                  1.0890         0.361404   
     20. B(H  18,C  12)                  1.0890         0.361407   
     21. B(H  19,C  10)                  1.0890         0.361453   
     22. B(H  20,C  10)                  1.0889         0.361504   
     23. B(H  21,C  10)                  1.0890         0.361436   
     24. B(H  22,C   8)                  1.0889         0.361535   
     25. B(H  23,C   8)                  1.0890         0.361375   
     26. B(H  24,C   8)                  1.0890         0.361406   
     27. B(H  25,C   9)                  1.0890         0.361473   
     28. B(H  26,C   9)                  1.0890         0.361380   
     29. B(H  27,C   9)                  1.0891         0.361358   
     30. B(H  28,C   7)                  1.0890         0.361426   
     31. B(H  29,C   7)                  1.0890         0.361469   
     32. B(H  30,C   7)                  1.0890         0.361439   
     33. A(Cl  1,Fe  0,O   6)          110.0560         0.546997   
     34. A(P   3,Fe  0,O   5)           20.4006         0.328609   
     35. A(Cl  2,Fe  0,P   3)           91.7884         0.329179   
     36. A(Cl  2,Fe  0,P   4)          128.6908         0.327687   
     37. A(Cl  2,Fe  0,O   5)          109.3232         0.544874   
     38. A(Cl  1,Fe  0,O   5)          112.7305         0.548207   
     39. A(Cl  2,Fe  0,O   6)          109.9925         0.543673   
     40. A(P   4,Fe  0,O   6)           20.1938         0.326493   
     41. A(Cl  1,Fe  0,P   3)          131.4041         0.330935   
     42. A(P   3,Fe  0,P   4)          103.0935         0.214455   
     43. A(P   3,Fe  0,O   6)           98.3525         0.327977   
     44. A(P   4,Fe  0,O   5)           98.6652         0.327121   
     45. A(O   5,Fe  0,O   6)          101.1401         0.542593   
     46. A(Cl  1,Fe  0,Cl  2)          112.9631         0.549299   
     47. A(Cl  1,Fe  0,P   4)           93.1517         0.329432   
     48. A(O   5,P   3,C   9)          110.6323         0.534008   
     49. A(Fe  0,P   3,C   9)          133.3363         0.302634   
     50. A(C   7,P   3,C   8)          107.0090         0.448641   
     51. A(Fe  0,P   3,O   5)           27.4974         0.351960   
     52. A(O   5,P   3,C   8)          112.0893         0.533527   
     53. A(Fe  0,P   3,C   8)           87.9096         0.302403   
     54. A(Fe  0,P   3,C   7)          109.5797         0.301745   
     55. A(O   5,P   3,C   7)          112.0781         0.532156   
     56. A(C   7,P   3,C   9)          107.4498         0.449030   
     57. A(C   8,P   3,C   9)          107.3243         0.450143   
     58. A(Fe  0,P   4,C  11)           92.8986         0.301949   
     59. A(Fe  0,P   4,C  10)          101.3774         0.301881   
     60. A(O   6,P   4,C  12)          110.6772         0.542989   
     61. A(Fe  0,P   4,O   6)           27.2708         0.350502   
     62. A(Fe  0,P   4,C  12)          137.0331         0.305448   
     63. A(C  10,P   4,C  11)          107.7457         0.452606   
     64. A(C  10,P   4,C  12)          107.9433         0.458580   
     65. A(C  11,P   4,C  12)          106.8071         0.458698   
     66. A(O   6,P   4,C  10)          111.3299         0.535509   
     67. A(O   6,P   4,C  11)          112.1240         0.535652   
     68. A(Fe  0,O   5,P   3)          132.1020         0.588113   
     69. A(Fe  0,O   6,P   4)          132.5354         0.587132   
     70. A(H  29,C   7,H  30)          109.4697         0.291183   
     71. A(H  28,C   7,H  30)          109.4674         0.291177   
     72. A(P   3,C   7,H  30)          109.4695         0.358235   
     73. A(H  28,C   7,H  29)          109.4766         0.291181   
     74. A(P   3,C   7,H  29)          109.4741         0.358240   
     75. A(P   3,C   7,H  28)          109.4699         0.358233   
     76. A(H  22,C   8,H  24)          109.4693         0.291187   
     77. A(H  22,C   8,H  23)          109.4723         0.291183   
     78. A(P   3,C   8,H  23)          109.4724         0.359057   
     79. A(P   3,C   8,H  22)          109.4732         0.359084   
     80. A(H  23,C   8,H  24)          109.4672         0.291167   
     81. A(P   3,C   8,H  24)          109.4729         0.359062   
     82. A(P   3,C   9,H  26)          109.4699         0.359350   
     83. A(P   3,C   9,H  25)          109.4719         0.359366   
     84. A(H  26,C   9,H  27)          109.4699         0.291161   
     85. A(H  25,C   9,H  27)          109.4710         0.291173   
     86. A(P   3,C   9,H  27)          109.4688         0.359346   
     87. A(H  25,C   9,H  26)          109.4758         0.291176   
     88. A(H  20,C  10,H  21)          109.4781         0.291187   
     89. A(H  19,C  10,H  21)          109.4660         0.291180   
     90. A(P   4,C  10,H  21)          109.4675         0.360090   
     91. A(H  19,C  10,H  20)          109.4746         0.291189   
     92. A(P   4,C  10,H  20)          109.4723         0.360102   
     93. A(P   4,C  10,H  19)          109.4688         0.360093   
     94. A(H  14,C  11,H  15)          109.4668         0.291180   
     95. A(H  13,C  11,H  15)          109.4693         0.291183   
     96. A(P   4,C  11,H  15)          109.4719         0.360181   
     97. A(H  13,C  11,H  14)          109.4704         0.291178   
     98. A(P   4,C  11,H  14)          109.4744         0.360174   
     99. A(P   4,C  11,H  13)          109.4745         0.360179   
    100. A(H  17,C  12,H  18)          109.4670         0.291170   
    101. A(H  16,C  12,H  18)          109.4692         0.291173   
    102. A(P   4,C  12,H  18)          109.4729         0.364626   
    103. A(H  16,C  12,H  17)          109.4715         0.291172   
    104. A(P   4,C  12,H  17)          109.4742         0.364626   
    105. A(P   4,C  12,H  16)          109.4725         0.364629   
    106. D(C   7,P   3,Fe  0,P   4)   -179.9454         0.001502   
    107. D(O   5,P   3,Fe  0,P   4)    -79.5344         0.001502   
    108. D(C   7,P   3,Fe  0,Cl  2)     49.5599         0.001502   
    109. D(O   5,P   3,Fe  0,Cl  2)    149.9708         0.001502   
    110. D(O   5,P   3,Fe  0,Cl  1)     26.7461         0.001502   
    111. D(C   7,P   3,Fe  0,O   5)   -100.4110         0.001502   
    112. D(O   5,P   3,Fe  0,O   6)    -99.5225         0.001502   
    113. D(C   7,P   3,Fe  0,O   6)    160.0665         0.001502   
    114. D(C   7,P   3,Fe  0,Cl  1)    -73.6649         0.001502   
    115. D(C  10,P   4,Fe  0,Cl  2)    -90.1014         0.001502   
    116. D(O   6,P   4,Fe  0,O   5)    -98.7323         0.001502   
    117. D(O   6,P   4,Fe  0,P   3)    -78.4441         0.001502   
    118. D(C  10,P   4,Fe  0,Cl  1)     32.9024         0.001502   
    119. D(O   6,P   4,Fe  0,Cl  2)     24.6956         0.001502   
    120. D(C  10,P   4,Fe  0,O   6)   -114.7970         0.001502   
    121. D(C  10,P   4,Fe  0,O   5)    146.4707         0.001502   
    122. D(C  10,P   4,Fe  0,P   3)    166.7588         0.001502   
    123. D(O   6,P   4,Fe  0,Cl  1)    147.6994         0.001502   
    124. D(Fe  0,O   5,P   3,C   9)   -149.8705         0.028654   
    125. D(Fe  0,O   5,P   3,C   8)    -30.1216         0.028654   
    126. D(P   3,O   5,Fe  0,O   6)     83.9871         0.003389   
    127. D(Fe  0,O   5,P   3,C   7)     90.2289         0.028654   
    128. D(P   3,O   5,Fe  0,Cl  2)    -32.0093         0.003389   
    129. D(P   3,O   5,Fe  0,P   4)    104.3367         0.003389   
    130. D(P   3,O   5,Fe  0,Cl  1)   -158.5320         0.003389   
    131. D(Fe  0,O   6,P   4,C  10)     72.8243         0.028831   
    132. D(P   4,O   6,Fe  0,O   5)     84.8043         0.003345   
    133. D(P   4,O   6,Fe  0,P   3)    105.3149         0.003345   
    134. D(P   4,O   6,Fe  0,Cl  2)   -159.6951         0.003345   
    135. D(Fe  0,O   6,P   4,C  11)    -47.9703         0.028831   
    136. D(P   4,O   6,Fe  0,Cl  1)    -34.6107         0.003345   
    137. D(Fe  0,O   6,P   4,C  12)   -167.1177         0.028831   
    138. D(H  29,C   7,P   3,O   5)   -179.9978         0.004996   
    139. D(H  28,C   7,P   3,C   9)    -61.7474         0.004996   
    140. D(H  28,C   7,P   3,C   8)   -176.7448         0.004996   
    141. D(H  28,C   7,P   3,O   5)     59.9945         0.004996   
    142. D(H  28,C   7,P   3,Fe  0)     89.3378         0.004996   
    143. D(H  29,C   7,P   3,C   8)    -56.7372         0.004996   
    144. D(H  29,C   7,P   3,Fe  0)   -150.6546         0.004996   
    145. D(H  23,C   8,P   3,C   7)     56.7522         0.005096   
    146. D(H  23,C   8,P   3,O   5)   -179.9941         0.005096   
    147. D(H  23,C   8,P   3,Fe  0)    166.5995         0.005096   
    148. D(H  22,C   8,P   3,C   9)   -178.3326         0.005096   
    149. D(H  22,C   8,P   3,C   7)    -63.2511         0.005096   
    150. D(H  22,C   8,P   3,O   5)     60.0026         0.005096   
    151. D(H  22,C   8,P   3,Fe  0)     46.5962         0.005096   
    152. D(H  26,C   9,P   3,C   7)    -57.3601         0.005132   
    153. D(H  26,C   9,P   3,O   5)    180.0000         0.005132   
    154. D(H  26,C   9,P   3,Fe  0)    161.4194         0.005132   
    155. D(H  25,C   9,P   3,C   8)    -62.5778         0.005132   
    156. D(H  25,C   9,P   3,C   7)   -177.3653         0.005132   
    157. D(H  25,C   9,P   3,O   5)     59.9948         0.005132   
    158. D(H  25,C   9,P   3,Fe  0)     41.4143         0.005132   
    159. D(H  20,C  10,P   4,C  11)    -56.6731         0.005223   
    160. D(H  20,C  10,P   4,O   6)    179.9964         0.005223   
    161. D(H  20,C  10,P   4,Fe  0)   -153.4818         0.005223   
    162. D(H  19,C  10,P   4,C  12)    -61.6682         0.005223   
    163. D(H  19,C  10,P   4,C  11)   -176.6764         0.005223   
    164. D(H  19,C  10,P   4,O   6)     59.9931         0.005223   
    165. D(H  19,C  10,P   4,Fe  0)     86.5149         0.005223   
    166. D(H  13,C  11,P   4,C  10)    -62.8499         0.005234   
    167. D(H  13,C  11,P   4,O   6)     59.9949         0.005234   
    168. D(H  13,C  11,P   4,Fe  0)     40.0703         0.005234   
    169. D(H  14,C  11,P   4,C  10)     57.1530         0.005234   
    170. D(H  14,C  11,P   4,O   6)    179.9979         0.005234   
    171. D(H  14,C  11,P   4,Fe  0)    160.0733         0.005234   
    172. D(H  13,C  11,P   4,C  12)   -178.6075         0.005234   
    173. D(H  17,C  12,P   4,C  10)    -57.9272         0.005836   
    174. D(H  17,C  12,P   4,O   6)   -179.9917         0.005836   
    175. D(H  17,C  12,P   4,Fe  0)    171.3883         0.005836   
    176. D(H  16,C  12,P   4,C  11)    -62.3049         0.005836   
    177. D(H  16,C  12,P   4,C  10)   -177.9302         0.005836   
    178. D(H  16,C  12,P   4,O   6)     60.0053         0.005836   
    179. D(H  16,C  12,P   4,Fe  0)     51.3854         0.005836   
    -----------------------------------------------------------------

Number of atoms                         .... 31
Number of degrees of freedom            .... 179


         *************************************************************
         *                GEOMETRY OPTIMIZATION CYCLE   1            *
         *************************************************************
---------------------------------
CARTESIAN COORDINATES (ANGSTROEM)
---------------------------------
  Fe     0.036200   11.292900   10.058600
  Cl     0.992900   13.368200    9.982900
  Cl    -0.337000   10.556500   12.200200
  P     -2.831000   10.246600    9.092100
  P      2.029700   10.098800    7.845500
  O     -1.661200   11.189400    9.020700
  O      1.171000    9.979900    9.073700
  C     -4.097800   10.826700   10.227200
  C     -2.345300    8.609500    9.640200
  C     -3.595100   10.065200    7.481200
  C      3.525300   11.020100    8.183900
  C      1.176600   10.918000    6.503900
  C      2.497400    8.499000    7.253100
  H      0.889500   11.921300    6.815100
  H      1.835600   10.980800    5.639200
  H      0.285200   10.350700    6.240400
  H      1.603800    7.928600    7.004000
  H      3.117900    8.607900    6.364800
  H      3.058500    7.975500    8.025800
  H      4.097400   10.511600    8.958500
  H      4.123200   11.087700    7.276300
  H      3.265600   12.021800    8.523100
  H     -1.902000    8.675600   10.632600
  H     -3.221600    7.963900    9.676300
  H     -1.617400    8.194800    8.944400
  H     -2.865800    9.669400    6.776000
  H     -4.438300    9.379900    7.554500
  H     -3.945600   11.036200    7.134300
  H     -4.464100   11.797600    9.896900
  H     -4.921800   10.115000   10.246100
  H     -3.675000   10.919100   11.226500

----------------------------
CARTESIAN COORDINATES (A.U.)
----------------------------
  NO LB      ZA    FRAG     MASS         X           Y           Z
   0 Fe   26.0000    0    55.850    0.068408   21.340488   19.007999
   1 Cl   17.0000    0    35.453    1.876309   25.262237   18.864947
   2 Cl   17.0000    0    35.453   -0.636838   19.948894   23.055037
   3 P    15.0000    0    30.974   -5.349815   19.363268   17.181579
   4 P    15.0000    0    30.974    3.835577   19.083966   14.825846
   5 O     8.0000    0    15.999   -3.139213   21.144902   17.046653
   6 O     8.0000    0    15.999    2.212869   18.859278   17.146808
   7 C     6.0000    0    12.011   -7.743720   20.459498   19.326607
   8 C     6.0000    0    12.011   -4.431975   16.269597   18.217338
   9 C     6.0000    0    12.011   -6.793754   19.020471   14.137419
  10 C     6.0000    0    12.011    6.661852   20.824971   15.465330
  11 C     6.0000    0    12.011    2.223452   20.632030   12.290590
  12 C     6.0000    0    12.011    4.719402   16.060782   13.706373
  13 H     1.0000    0     1.008    1.680911   22.527992   12.878673
  14 H     1.0000    0     1.008    3.468781   20.750705   10.656544
  15 H     1.0000    0     1.008    0.538950   19.559988   11.792647
  16 H     1.0000    0     1.008    3.030743   14.982883   13.235642
  17 H     1.0000    0     1.008    5.891977   16.266574   12.027729
  18 H     1.0000    0     1.008    5.779727   15.071511   15.166564
  19 H     1.0000    0     1.008    7.742964   19.864045   16.929112
  20 H     1.0000    0     1.008    7.791719   20.952716   13.750214
  21 H     1.0000    0     1.008    6.171090   22.717910   16.106325
  22 H     1.0000    0     1.008   -3.594259   16.394508   20.092702
  23 H     1.0000    0     1.008   -6.087942   15.049590   18.285557
  24 H     1.0000    0     1.008   -3.056443   15.485928   16.902466
  25 H     1.0000    0     1.008   -5.415577   18.272518   12.804784
  26 H     1.0000    0     1.008   -8.387172   17.725442   14.275936
  27 H     1.0000    0     1.008   -7.456103   20.855396   13.481873
  28 H     1.0000    0     1.008   -8.435926   22.294233   18.702431
  29 H     1.0000    0     1.008   -9.300854   19.114580   19.362323
  30 H     1.0000    0     1.008   -6.944744   20.634109   21.215010

--------------------------------
INTERNAL COORDINATES (ANGSTROEM)
--------------------------------
 Fe     0   0   0     0.000000000000     0.00000000     0.00000000
 Cl     1   0   0     2.286454781971     0.00000000     0.00000000
 Cl     1   2   0     2.295215406013   112.96312005     0.00000000
 P      1   2   3     3.201515544238   131.40406987   114.75865435
 P      1   2   3     3.209007427539    93.15171572   225.30951546
 O      4   1   2     1.504128265807    27.49736430    26.74608619
 O      5   1   2     1.503322367292    27.27081633   147.69938841
 C      4   1   2     1.797150594691   109.57970718   286.33513215
 C      4   1   2     1.793436508494    87.90956382   179.01574603
 C      4   1   2     1.792136596356   133.33626186    66.97649929
 C      5   1   2     1.788890049724   101.37736812    32.90235282
 C      5   1   2     1.788507425201    92.89863686   284.14937984
 C      5   1   2     1.768909576547   137.03306258   165.51997916
 H     12   5   1     1.088982433283   109.47448841    40.07030983
 H     12   5   1     1.089004559219   109.47444900   160.07328551
 H     12   5   1     1.088969926123   109.47192313   280.07022310
 H     13   5   1     1.089003181814   109.47248215    51.38537017
 H     13   5   1     1.089016230366   109.47421144   171.38833737
 H     13   5   1     1.089013659235   109.47286298   291.38603847
 H     11   5   1     1.088979256001   109.46877589    86.51489879
 H     11   5   1     1.088940737598   109.47232906   206.51816097
 H     11   5   1     1.088992020173   109.46753464   326.52505832
 H      9   4   1     1.088917747123   109.47323274    46.59620955
 H      9   4   1     1.089038227061   109.47243272   166.59952053
 H      9   4   1     1.089014297427   109.47285173   286.59628895
 H     10   4   1     1.088964264795   109.47191919    41.41425761
 H     10   4   1     1.089034076602   109.46990130   161.41944964
 H     10   4   1     1.089050439603   109.46882757   281.41559445
 H      8   4   1     1.088999811754   109.46994276    89.33776466
 H      8   4   1     1.088967446713   109.47411649   209.34540144
 H      8   4   1     1.088989481125   109.46948997   329.34424112

---------------------------
INTERNAL COORDINATES (A.U.)
---------------------------
 Fe     0   0   0     0.000000000000     0.00000000     0.00000000
 Cl     1   0   0     4.320773355521     0.00000000     0.00000000
 Cl     1   2   0     4.337328535722   112.96312005     0.00000000
 P      1   2   3     6.049987592102   131.40406987   114.75865435
 P      1   2   3     6.064145199768    93.15171572   225.30951546
 O      4   1   2     2.842390492665    27.49736430    26.74608619
 O      5   1   2     2.840867565180    27.27081633   147.69938841
 C      4   1   2     3.396122445381   109.57970718   286.33513215
 C      4   1   2     3.389103839630    87.90956382   179.01574603
 C      4   1   2     3.386647361691   133.33626186    66.97649929
 C      5   1   2     3.380512277674   101.37736812    32.90235282
 C      5   1   2     3.379789222115    92.89863686   284.14937984
 C      5   1   2     3.342754655345   137.03306258   165.51997916
 H     12   5   1     2.057878563557   109.47448841    40.07030983
 H     12   5   1     2.057920375516   109.47444900   160.07328551
 H     12   5   1     2.057854928449   109.47192313   280.07022310
 H     13   5   1     2.057917772596   109.47248215    51.38537017
 H     13   5   1     2.057942430787   109.47421144   171.38833737
 H     13   5   1     2.057937572053   109.47286298   291.38603847
 H     11   5   1     2.057872559363   109.46877589    86.51489879
 H     11   5   1     2.057799770130   109.47232906   206.51816097
 H     11   5   1     2.057896680152   109.46753464   326.52505832
 H      9   4   1     2.057756324429   109.47323274    46.59620955
 H      9   4   1     2.057983998516   109.47243272   166.59952053
 H      9   4   1     2.057938778061   109.47285173   286.59628895
 H     10   4   1     2.057844230089   109.47191919    41.41425761
 H     10   4   1     2.057976155285   109.46990130   161.41944964
 H     10   4   1     2.058007076877   109.46882757   281.41559445
 H      8   4   1     2.057911404107   109.46994276    89.33776466
 H      8   4   1     2.057850243043   109.47411649   209.34540144
 H      8   4   1     2.057891882046   109.46948997   329.34424112

---------------------
BASIS SET INFORMATION
---------------------
There are 6 groups of distinct atoms

 Group   1 Type Fe  : 17s11p7d1f contracted to 6s4p4d1f pattern {842111/6311/4111/1}
 Group   2 Type Cl  : 14s9p3d1f contracted to 5s5p2d1f pattern {73211/51111/21/1}
 Group   3 Type P   : 14s9p3d1f contracted to 5s5p2d1f pattern {73211/51111/21/1}
 Group   4 Type O   : 11s6p2d1f contracted to 5s3p2d1f pattern {62111/411/11/1}
 Group   5 Type C   : 11s6p2d1f contracted to 5s3p2d1f pattern {62111/411/11/1}
 Group   6 Type H   : 5s1p contracted to 3s1p pattern {311/1}

Atom   0Fe   basis set group =>   1
Atom   1Cl   basis set group =>   2
Atom   2Cl   basis set group =>   2
Atom   3P    basis set group =>   3
Atom   4P    basis set group =>   3
Atom   5O    basis set group =>   4
Atom   6O    basis set group =>   4
Atom   7C    basis set group =>   5
Atom   8C    basis set group =>   5
Atom   9C    basis set group =>   5
Atom  10C    basis set group =>   5
Atom  11C    basis set group =>   5
Atom  12C    basis set group =>   5
Atom  13H    basis set group =>   6
Atom  14H    basis set group =>   6
Atom  15H    basis set group =>   6
Atom  16H    basis set group =>   6
Atom  17H    basis set group =>   6
Atom  18H    basis set group =>   6
Atom  19H    basis set group =>   6
Atom  20H    basis set group =>   6
Atom  21H    basis set group =>   6
Atom  22H    basis set group =>   6
Atom  23H    basis set group =>   6
Atom  24H    basis set group =>   6
Atom  25H    basis set group =>   6
Atom  26H    basis set group =>   6
Atom  27H    basis set group =>   6
Atom  28H    basis set group =>   6
Atom  29H    basis set group =>   6
Atom  30H    basis set group =>   6
---------------------------------
AUXILIARY/J BASIS SET INFORMATION
---------------------------------
There are 6 groups of distinct atoms

 Group   1 Type Fe  : 19s5p5d3f3g contracted to 8s5p5d2f3g pattern {121111111/11111/11111/21/111}
 Group   2 Type Cl  : 14s5p5d2f1g contracted to 8s4p3d1f1g pattern {71111111/2111/311/2/1}
 Group   3 Type P   : 14s5p5d2f1g contracted to 8s4p3d1f1g pattern {71111111/2111/311/2/1}
 Group   4 Type O   : 12s5p4d2f1g contracted to 6s4p3d1f1g pattern {711111/2111/211/2/1}
 Group   5 Type C   : 12s5p4d2f1g contracted to 6s4p3d1f1g pattern {711111/2111/211/2/1}
 Group   6 Type H   : 5s2p1d contracted to 3s1p1d pattern {311/2/1}

Atom   0Fe   basis set group =>   1
Atom   1Cl   basis set group =>   2
Atom   2Cl   basis set group =>   2
Atom   3P    basis set group =>   3
Atom   4P    basis set group =>   3
Atom   5O    basis set group =>   4
Atom   6O    basis set group =>   4
Atom   7C    basis set group =>   5
Atom   8C    basis set group =>   5
Atom   9C    basis set group =>   5
Atom  10C    basis set group =>   5
Atom  11C    basis set group =>   5
Atom  12C    basis set group =>   5
Atom  13H    basis set group =>   6
Atom  14H    basis set group =>   6
Atom  15H    basis set group =>   6
Atom  16H    basis set group =>   6
Atom  17H    basis set group =>   6
Atom  18H    basis set group =>   6
Atom  19H    basis set group =>   6
Atom  20H    basis set group =>   6
Atom  21H    basis set group =>   6
Atom  22H    basis set group =>   6
Atom  23H    basis set group =>   6
Atom  24H    basis set group =>   6
Atom  25H    basis set group =>   6
Atom  26H    basis set group =>   6
Atom  27H    basis set group =>   6
Atom  28H    basis set group =>   6
Atom  29H    basis set group =>   6
Atom  30H    basis set group =>   6


           ************************************************************
           *        Program running with 16 parallel MPI-processes    *
           *              working on a common directory               *
           ************************************************************
------------------------------------------------------------------------------
                             ORCA STARTUP CALCULATIONS
                           -- RI-GTO INTEGRALS CHOSEN --
------------------------------------------------------------------------------
------------------------------------------------------------------------------
                   ___                                                        
                  /   \      - P O W E R E D   B Y -                         
                 /     \                                                     
                 |  |  |   _    _      __       _____    __    __             
                 |  |  |  | |  | |    /  \     |  _  \  |  |  /  |          
                  \  \/   | |  | |   /    \    | | | |  |  | /  /          
                 / \  \   | |__| |  /  /\  \   | |_| |  |  |/  /          
                |  |  |   |  __  | /  /__\  \  |    /   |      \           
                |  |  |   | |  | | |   __   |  |    \   |  |\   \          
                \     /   | |  | | |  |  |  |  | |\  \  |  | \   \       
                 \___/    |_|  |_| |__|  |__|  |_| \__\ |__|  \__/        
                                                                              
                      - O R C A' S   B I G   F R I E N D -                    
                                      &                                       
                       - I N T E G R A L  F E E D E R -                       
                                                                              
 v1 FN, 2020, v2 2021, v3 2022-2024                                           
------------------------------------------------------------------------------


----------------------
SHARK INTEGRAL PACKAGE
----------------------

Number of atoms                             ...     31
Number of basis functions                   ...    549
Number of shells                            ...    227
Maximum angular momentum                    ...      3
Integral batch strategy                     ... SHARK/LIBINT Hybrid
RI-J (if used) integral strategy            ... SPLIT-RIJ (Revised 2003 algorithm where possible)
Printlevel                                  ...      1
Contraction scheme used                     ... SEGMENTED contraction
Prescreening option                         ... SCHWARTZ
   Thresh                                   ... 2.500e-11
   Tcut                                     ... 2.500e-12
   Tpresel                                  ... 2.500e-12 
Coulomb Range Separation                    ... NOT USED
Exchange Range Separation                   ... NOT USED
Multipole approximations                    ... NOT USED
Finite Nucleus Model                        ... NOT USED
CABS basis                                  ... NOT available
Auxiliary Coulomb fitting basis             ... AVAILABLE
   # of basis functions in Aux-J            ...    883
   # of shells in Aux-J                     ...    301
   Maximum angular momentum in Aux-J        ...      4
Auxiliary J/K fitting basis                 ... NOT available
Auxiliary Correlation fitting basis         ... NOT available
Auxiliary 'external' fitting basis          ... NOT available

Checking pre-screening integrals            ... done (  0.0 sec) Dimension = 227
Check shell pair data                       ... done (  0.0 sec)
Shell pair information
Shell pair cut-off parameter TPreSel        ...   2.5e-12
Total number of shell pairs                 ...     25878
Shell pairs after pre-screening             ...     19002
Total number of primitive shell pairs       ...     85511
Primitive shell pairs kept                  ...     41099
          la=0 lb=0:   5235 shell pairs
          la=1 lb=0:   5783 shell pairs
          la=1 lb=1:   1620 shell pairs
          la=2 lb=0:   2536 shell pairs
          la=2 lb=1:   1421 shell pairs
          la=2 lb=2:    342 shell pairs
          la=3 lb=0:   1087 shell pairs
          la=3 lb=1:    615 shell pairs
          la=3 lb=2:    297 shell pairs
          la=3 lb=3:     66 shell pairs

Calculating one electron integrals          ... done (  0.0 sec)
done (  0.1 sec)
Calculating Nuclear repulsion               ... done (  0.0 sec) ENN=   1828.196816960205 Eh

Diagonalization of the overlap matrix:
Smallest eigenvalue                        ... 5.081e-04
Time for diagonalization                   ...    0.028 sec
Threshold for overlap eigenvalues          ... 1.000e-07
Number of eigenvalues below threshold      ... 0
Time for construction of square roots      ...    0.021 sec
Total time needed                          ...    0.064 sec

-------------------
DFT GRID GENERATION
-------------------

General Integration Accuracy     IntAcc      ... 4.959
Radial Grid Type                 RadialGrid  ... OptM3 with GC (2021)
Angular Grid (max. ang.)         AngularGrid ... 6 (Lebedev-590)
Angular grid pruning method      GridPruning ... 4 (adaptive)
Weight generation scheme         WeightScheme... mBecke (2022)
Basis function cutoff            BFCut       ... 1.0000e-11
Integration weight cutoff        WCut        ... 1.0000e-14
Partially contracted basis set               ... off
Rotationally invariant grid construction     ... off
Angular grids for H and He will be reduced by one unit
Core-polarized basis detected: some atoms will have their core
                               angular grid increased.

Total number of grid points                  ...   360728
Total number of batches                      ...     5651
Average number of points per batch           ...       63
Average number of grid points per atom       ...    11636

--------------------
COSX GRID GENERATION
--------------------

GRIDX 1
-------
General Integration Accuracy     IntAcc      ... 4.020
Radial Grid Type                 RadialGrid  ... OptM3 with GC (2021)
Angular Grid (max. ang.)         AngularGrid ... 2 (Lebedev-110)
Angular grid pruning method      GridPruning ... 4 (adaptive)
Weight generation scheme         WeightScheme... mBecke (2022)
Basis function cutoff            BFCut       ... 1.0000e-11
Integration weight cutoff        WCut        ... 1.0000e-14
Partially contracted basis set               ... on
Rotationally invariant grid construction     ... off
Angular grids for H and He will be reduced by one unit
Core-polarized basis detected: some atoms will have their core
                               angular grid increased.

Total number of grid points                  ...    41124
Total number of batches                      ...      337
Average number of points per batch           ...      122
Average number of grid points per atom       ...     1327
UseSFitting                                  ... on

GRIDX 2
-------
General Integration Accuracy     IntAcc      ... 4.338
Radial Grid Type                 RadialGrid  ... OptM3 with GC (2021)
Angular Grid (max. ang.)         AngularGrid ... 3 (Lebedev-194)
Angular grid pruning method      GridPruning ... 4 (adaptive)
Weight generation scheme         WeightScheme... mBecke (2022)
Basis function cutoff            BFCut       ... 1.0000e-11
Integration weight cutoff        WCut        ... 1.0000e-14
Partially contracted basis set               ... on
Rotationally invariant grid construction     ... off
Angular grids for H and He will be reduced by one unit
Core-polarized basis detected: some atoms will have their core
                               angular grid increased.

Total number of grid points                  ...    84959
Total number of batches                      ...      677
Average number of points per batch           ...      125
Average number of grid points per atom       ...     2741
UseSFitting                                  ... on

GRIDX 3
-------
General Integration Accuracy     IntAcc      ... 4.871
Radial Grid Type                 RadialGrid  ... OptM3 with GC (2021)
Angular Grid (max. ang.)         AngularGrid ... 4 (Lebedev-302)
Angular grid pruning method      GridPruning ... 4 (adaptive)
Weight generation scheme         WeightScheme... mBecke (2022)
Basis function cutoff            BFCut       ... 1.0000e-11
Integration weight cutoff        WCut        ... 1.0000e-14
Partially contracted basis set               ... on
Rotationally invariant grid construction     ... off
Angular grids for H and He will be reduced by one unit
Core-polarized basis detected: some atoms will have their core
                               angular grid increased.

Total number of grid points                  ...   163713
Total number of batches                      ...     1296
Average number of points per batch           ...      126
Average number of grid points per atom       ...     5281
UseSFitting                                  ... on
Initializing property integral containers    ... done (  0.0 sec)

SHARK setup successfully completed in   4.2 seconds

Maximum memory used throughout the entire STARTUP-calculation: 101.0 MB


           ************************************************************
           *        Program running with 16 parallel MPI-processes    *
           *              working on a common directory               *
           ************************************************************
-------------------------------------------------------------------------------
                                 ORCA GUESS
                   Start orbitals & Density for SCF / CASSCF
-------------------------------------------------------------------------------

------------
SCF SETTINGS
------------
Hamiltonian:
 Density Functional     Method          .... DFT(GTOs)
 Exchange Functional    Exchange        .... PBE
   PBE kappa parameter   XKappa         ....  0.804000
   PBE mue parameter    XMuePBE         ....  0.219520
 Correlation Functional Correlation     .... PBE
   PBE beta parameter  CBetaPBE         ....  0.066725
 LDA part of GGA corr.  LDAOpt          .... PW91-LDA
 Gradients option       PostSCFGGA      .... off
 Hybrid DFT is turned on
   Fraction HF Exchange ScalHFX         ....  0.250000
   Scaling of DF-GGA-X  ScalDFX         ....  0.750000
   Scaling of DF-GGA-C  ScalDFC         ....  1.000000
   Scaling of DF-LDA-C  ScalLDAC        ....  1.000000
   Perturbative correction              ....  0.000000
   NL short-range parameter             ....  6.900000
 RI-approximation to the Coulomb term is turned on
   Number of AuxJ basis functions       .... 883
   RIJ-COSX (HFX calculated with COS-X)).... on


General Settings:
 Integral files         IntName         .... VOFZEV-S6
 Hartree-Fock type      HFTyp           .... UHF
 Total Charge           Charge          ....    1
 Multiplicity           Mult            ....    2
 Number of Electrons    NEL             ....  159
 Basis Dimension        Dim             ....  549
 Nuclear Repulsion      ENuc            ....   1828.1968169602 Eh

Convergence Acceleration:
 AO-DIIS                CNVDIIS         .... on
   Start iteration      DIISMaxIt       ....    12
   Startup error        DIISStart       ....  0.200000
   # of expansion vecs  DIISMaxEq       ....     5
   Bias factor          DIISBfac        ....   1.050
   Max. coefficient     DIISMaxC        ....  10.000
 MO-DIIS                CNVKDIIS        .... off
 Trust-Rad. Augm. Hess. CNVTRAH         .... auto
   Auto Start mean grad. ratio tolernc. ....  1.125000
   Auto Start start iteration           ....    50
   Auto Start num. interpolation iter.  ....    10
   Max. Number of Micro iterations      ....    24
   Max. Number of Macro iterations      .... Maxiter - #DIIS iter
   Number of Davidson start vectors     ....     2
   Converg. threshold    (grad. norm)   ....   1.000e-05
   Grad. Scal. Fac. for Micro threshold ....   0.100
   Minimum threshold for Micro iter.    ....   1.000e-02
   NR start threshold (gradient norm)   ....   1.000e-04
   Initial trust radius                 ....   0.400
   Minimum AH scaling param. (alpha)    ....   1.000
   Maximum AH scaling param. (alpha)    .... 1000.000
   Quad. conv. algorithm                .... NR
   White noise on init. David. guess    .... on
   Maximum white noise                  ....   0.010
   Pseudo random numbers                .... off
   Inactive MOs                         .... canonical
   Orbital update algorithm             .... Taylor
   Preconditioner                       .... Diag
   Full preconditioner red. dimension   ....   250
 SOSCF                  CNVSOSCF        .... on
   Start iteration      SOSCFMaxIt      ....   150
   Startup grad/error   SOSCFStart      ....  0.003300
   Hessian update       SOSCFHessUp     .... L-BFGS
 Level Shifting         CNVShift        .... on
   Level shift para.    LevelShift      ....    0.2500
   Turn off err/grad.   ShiftErr        ....    0.0010
 Zerner damping         CNVZerner       .... off
 Static damping         CNVDamp         .... on
   Fraction old density DampFac         ....    0.7000
   Max. Damping (<1)    DampMax         ....    0.9800
   Min. Damping (>=0)   DampMin         ....    0.0000
   Turn off err/grad.   DampErr         ....    0.1000

SCF Procedure:
 Maximum # iterations   MaxIter         ....   125
 SCF integral mode      SCFMode         .... Direct
   Integral package                     .... SHARK and LIBINT hybrid scheme
 Reset frequency        DirectResetFreq ....    20
 Integral Threshold     Thresh          ....  2.500e-11 Eh
 Primitive CutOff       TCut            ....  2.500e-12 Eh

Convergence Tolerance:
 Convergence Check Mode ConvCheckMode   .... Total+1el-Energy
 Convergence forced     ConvForced      .... 0
 Energy Change          TolE            ....  1.000e-08 Eh
 1-El. energy change                    ....  1.000e-05 Eh
 Orbital Gradient       TolG            ....  1.000e-05
 Orbital Rotation angle TolX            ....  1.000e-05
 DIIS Error             TolErr          ....  5.000e-07

------------------------------
INITIAL GUESS: MODEL POTENTIAL
------------------------------
Loading Hartree-Fock densities                     ... done
Calculating cut-offs                               ... done
Initializing the effective Hamiltonian             ... done
Setting up the integral package (SHARK)            ... done
done (   0.1 sec)
Making the grid                                    ... done (   0.1 sec)
Mapping shells                                     ... done
Starting the XC term evaluation                    ... done (   0.0 sec)
  promolecular density results
     # of electrons  =    159.992621259
     EX              =   -206.428115696
     EC              =     -5.947900011
     EX+EC           =   -212.376015707
Transforming the Hamiltonian                       ... done (   0.0 sec)
done (   0.0 sec)
Back transforming the eigenvectors                 ... done (   0.0 sec)
done
                      ------------------
                      INITIAL GUESS DONE (   0.5 sec)
                      ------------------
             **** ENERGY FILE WAS UPDATED (VOFZEV-S6.en.tmp) ****
Finished Guess after   0.7 sec
Maximum memory used throughout the entire GUESS-calculation: 40.0 MB


           ************************************************************
           *        Program running with 16 parallel MPI-processes    *
           *              working on a common directory               *
           ************************************************************

-------------------------------------------------------------------------------------------
                                      ORCA LEAN-SCF
                              memory conserving SCF solver
-------------------------------------------------------------------------------------------

----------------------------------------D-I-I-S--------------------------------------------
Iteration    Energy (Eh)           Delta-E    RMSDP     MaxDP     DIISErr   Damp  Time(sec)
-------------------------------------------------------------------------------------------
               ***  Starting incremental Fock matrix formation  ***
    1    -3255.0244328619646694     0.00e+00  7.07e-04  5.51e-02  1.67e-01  0.700   5.1
Warning: op=0 Small HOMO/LUMO gap (  -0.034) - skipping pre-diagonalization
         Will do a full diagonalization
    2    -3255.2624038028880022    -2.38e-01  3.89e-04  2.34e-02  7.65e-02  0.700   3.3
                               ***Turning on AO-DIIS***
    3    -3255.4035239567692770    -1.41e-01  1.51e-04  9.29e-03  2.46e-02  0.700   3.0
    4    -3255.4773539908419480    -7.38e-02  2.95e-04  1.53e-02  4.66e-02  0.000   2.8
    5    -3255.6552176530867655    -1.78e-01  1.14e-04  9.03e-03  4.94e-02  0.000   3.0
    6    -3255.6701566447873120    -1.49e-02  9.62e-05  1.08e-02  2.24e-02  0.000   2.8
    7    -3255.6739672413796143    -3.81e-03  3.43e-05  3.11e-03  6.69e-03  0.000   2.7
                              *** Initializing SOSCF ***
---------------------------------------S-O-S-C-F--------------------------------------
Iteration    Energy (Eh)           Delta-E    RMSDP     MaxDP     MaxGrad    Time(sec)
--------------------------------------------------------------------------------------
    8    -3255.6745944450676689    -6.27e-04  2.52e-05  2.90e-03  2.16e-03     2.8
               *** Restarting incremental Fock matrix formation ***
    9    -3255.6749278124207194    -3.33e-04  6.06e-05  7.00e-03  2.97e-03     4.9
               *** Scaled step length from 2.874596 to 0.200000 ***
   10    -3255.6757065594301821    -7.79e-04  2.42e-04  2.90e-02  3.88e-03     3.5
               *** Scaled step length from 1.637357 to 0.200000 ***
   11    -3255.6785994338351884    -2.89e-03  2.42e-04  2.55e-02  4.00e-03     4.0
               *** Scaled step length from 0.210230 to 0.200000 ***
   12    -3255.6807392888931645    -2.14e-03  2.42e-04  2.28e-02  5.99e-03     3.9
   13    -3255.6818940530793043    -1.15e-03  8.47e-05  6.72e-03  5.18e-03     3.9
               *** Scaled step length from 0.360576 to 0.200000 ***
   14    -3255.6837866039022629    -1.89e-03  2.43e-04  2.27e-02  5.01e-03     3.7
               *** Scaled step length from 0.390405 to 0.200000 ***
   15    -3255.6877748943288680    -3.99e-03  2.41e-04  2.04e-02  7.86e-03     4.0
               *** Scaled step length from 0.270927 to 0.200000 ***
   16    -3255.6903966573472644    -2.62e-03  2.40e-04  2.52e-02  8.75e-03     4.0
   17    -3255.6930864683345135    -2.69e-03  2.08e-04  1.69e-02  7.48e-03     4.0
   18    -3255.6959091798380541    -2.82e-03  1.54e-04  1.59e-02  3.73e-03     4.1
   19    -3255.6974252578547748    -1.52e-03  7.90e-05  6.83e-03  4.33e-03     4.1
   20    -3255.6979171253997265    -4.92e-04  6.00e-05  5.27e-03  2.81e-03     3.8
   21    -3255.6982513171742539    -3.34e-04  4.79e-05  5.58e-03  2.10e-03     3.8
   22    -3255.6983818915177835    -1.31e-04  2.34e-05  2.27e-03  7.30e-04     3.7
   23    -3255.6984354492005878    -5.36e-05  3.47e-05  3.29e-03  6.94e-04     3.4
   24    -3255.6984722940997017    -3.68e-05  1.91e-05  2.57e-03  6.47e-04     3.5
   25    -3255.6984985358431004    -2.62e-05  3.12e-05  4.87e-03  5.00e-04     3.3
   26    -3255.6985337346141023    -3.52e-05  4.63e-05  6.79e-03  4.89e-04     3.3
   27    -3255.6985758131822877    -4.21e-05  7.98e-05  1.24e-02  4.50e-04     3.4
   28    -3255.6986303790554302    -5.46e-05  7.88e-05  1.38e-02  7.99e-04     3.6
               *** Restarting incremental Fock matrix formation ***
               *** Scaled step length from 0.227189 to 0.200000 ***
   29    -3255.6987053615130208    -7.50e-05  2.41e-04  4.55e-02  1.10e-03     4.9
               *** Scaled step length from 0.805737 to 0.200000 ***
   30    -3255.6989408092667873    -2.35e-04  2.40e-04  4.64e-02  2.21e-03     3.8
               *** Scaled step length from 0.302488 to 0.200000 ***
   31    -3255.6991522460821216    -2.11e-04  2.44e-04  4.30e-02  4.04e-03     3.8
   32    -3255.6994092796685436    -2.57e-04  1.19e-04  1.82e-02  5.82e-03     3.8
   33    -3255.6999223857492325    -5.13e-04  2.11e-04  2.62e-02  3.15e-03     3.7
   34    -3255.7005972761771773    -6.75e-04  1.64e-04  2.54e-02  2.39e-03     3.8
   35    -3255.7008358338634935    -2.39e-04  1.30e-04  1.73e-02  5.89e-03     3.9
   36    -3255.7010876699005166    -2.52e-04  4.51e-05  4.10e-03  2.30e-03     3.7
   37    -3255.7012476701047490    -1.60e-04  9.70e-05  1.13e-02  7.62e-04     3.6
   38    -3255.7014016749908478    -1.54e-04  5.96e-05  7.83e-03  1.87e-03     3.8
   39    -3255.7014638907912740    -6.22e-05  3.82e-05  4.19e-03  9.41e-04     3.6
   40    -3255.7015084604581716    -4.46e-05  2.52e-05  2.70e-03  3.90e-04     3.5
   41    -3255.7015382137797133    -2.98e-05  3.16e-05  3.55e-03  8.27e-04     3.4
   42    -3255.7015640383679056    -2.58e-05  2.36e-05  2.89e-03  5.30e-04     3.3
   43    -3255.7015794047738382    -1.54e-05  1.63e-05  2.08e-03  2.48e-04     3.3
   44    -3255.7015887688185103    -9.36e-06  1.38e-05  1.64e-03  2.37e-04     3.3
   45    -3255.7015955309316269    -6.76e-06  1.62e-05  2.09e-03  2.65e-04     3.3
   46    -3255.7016023509750084    -6.82e-06  2.34e-05  2.94e-03  2.03e-04     3.3
   47    -3255.7016100800819913    -7.73e-06  2.34e-05  3.04e-03  2.28e-04     3.5
   48    -3255.7016165964805623    -6.52e-06  1.68e-05  2.02e-03  2.24e-04     3.5
               *** Restarting incremental Fock matrix formation ***
   49    -3255.7016212967409956    -4.70e-06  1.12e-05  1.11e-03  1.53e-04     5.3
   50    -3255.7016246942421276    -3.40e-06  1.16e-05  1.28e-03  1.31e-04     3.9

       ******************************************************************************
       ***                                                                        ***
       ***                               Auto-TRAH                                ***
       ***                               ---------                                ***
       *** the maximum gradient error decreased on average only by a factor   1.1 ***
       *** during the last  10 iterations                                         ***
       ***                                                                        ***
       ***               Leaving SCF to start the TRAH-SCF procedure              ***
       ***                                                                        ***
       ******************************************************************************

 --------------------------------------------------------------------------------------------
   Iter.        energy            ||Error||_2        Shift      TRadius  Mac/Mic        Rej.
 --------------------------------------------------------------------------------------------
    0      -3255.701631591256     1.090035e-03                     0.400 (TRAH MAcro)   No
    0     dE    -2.634554e-06     1.388620e-03    -2.6345e-06      0.004 (TRAH MIcro)
    0     dE    -3.621690e-06     1.121734e-03    -3.6216e-06      0.006 (TRAH MIcro)
    0     dE    -4.677603e-06     9.125382e-04    -4.6772e-06      0.009 (TRAH MIcro)
    0     dE    -6.539658e-06     1.317074e-03    -6.5383e-06      0.014 (TRAH MIcro)
    0     dE    -8.022572e-06     1.331030e-03    -8.0195e-06      0.019 (TRAH MIcro)
    0     dE    -1.087746e-05     1.144179e-03    -1.0867e-05      0.031 (TRAH MIcro)
    0     dE    -1.198712e-05     9.518361e-04    -1.1972e-05      0.035 (TRAH MIcro)
    0     dE    -1.312609e-05     8.333311e-04    -1.3105e-05      0.040 (TRAH MIcro)
    0     dE    -1.383512e-05     7.724942e-04    -1.3809e-05      0.043 (TRAH MIcro)
    0     dE    -1.497594e-05     1.077747e-03    -1.4940e-05      0.049 (TRAH MIcro)
    0     dE    -1.613200e-05     1.054051e-03    -1.6083e-05      0.055 (TRAH MIcro)
    0     dE    -1.725835e-05     1.063726e-03    -1.7192e-05      0.062 (TRAH MIcro)
    0     dE    -1.826206e-05     8.610616e-04    -1.8176e-05      0.069 (TRAH MIcro)
    0     dE    -1.898777e-05     6.410532e-04    -1.8885e-05      0.074 (TRAH MIcro)
    0     dE    -1.960679e-05     7.661872e-04    -1.9488e-05      0.078 (TRAH MIcro)
    0     dE    -2.032035e-05     6.169503e-04    -2.0180e-05      0.083 (TRAH MIcro)
    0     dE    -2.085920e-05     6.626246e-04    -2.0701e-05      0.087 (TRAH MIcro)
    0     dE    -2.144130e-05     5.444693e-04    -2.1261e-05      0.092 (TRAH MIcro)
    0     dE    -2.173156e-05     3.589456e-04    -2.1540e-05      0.094 (TRAH MIcro)
    0     dE    -2.184082e-05     1.757606e-04    -2.1644e-05      0.095 (TRAH MIcro)
    0     dE    -2.187628e-05     1.515057e-04    -2.1678e-05      0.096 (TRAH MIcro)
    0     dE    -2.190806e-05     1.582268e-04    -2.1708e-05      0.096 (TRAH MIcro)
    0     dE    -2.194394e-05     1.698462e-04    -2.1743e-05      0.096 (TRAH MIcro)
    1      -3255.701651734103     7.680994e-04                     0.480 (TRAH MAcro)   No
    1     dE    -2.582727e-07     2.719358e-04    -2.5827e-07      0.001 (TRAH MIcro)
    1     dE    -3.252125e-07     2.272289e-04    -3.2521e-07      0.001 (TRAH MIcro)
    1     dE    -3.725893e-07     2.662701e-04    -3.7259e-07      0.002 (TRAH MIcro)
    1     dE    -4.192637e-07     2.648197e-04    -4.1926e-07      0.002 (TRAH MIcro)
    1     dE    -4.814733e-07     2.579084e-04    -4.8147e-07      0.003 (TRAH MIcro)
    1     dE    -5.538000e-07     2.735029e-04    -5.5379e-07      0.004 (TRAH MIcro)
    1     dE    -6.193199e-07     2.266333e-04    -6.1930e-07      0.006 (TRAH MIcro)
    1     dE    -6.765285e-07     2.076580e-04    -6.7650e-07      0.007 (TRAH MIcro)
    1     dE    -7.192154e-07     1.514667e-04    -7.1917e-07      0.008 (TRAH MIcro)
    1     dE    -7.345719e-07     7.636929e-05    -7.3453e-07      0.008 (TRAH MIcro)
    2      -3255.701652429023     7.948021e-05                           (NR   MAcro)
    2     dE    -5.102663e-09     5.300322e-05                           (NR   MIcro)
    2     dE    -9.698847e-09     7.036343e-05                           (NR   MIcro)
    2     dE    -1.221290e-08     7.198938e-05                           (NR   MIcro)
    2     dE    -1.576018e-08     6.259479e-05                           (NR   MIcro)
    2     dE    -2.076806e-08     7.210081e-05                           (NR   MIcro)
    2     dE    -2.475051e-08     4.849145e-05                           (NR   MIcro)
    2     dE    -2.752447e-08     4.509404e-05                           (NR   MIcro)
    2     dE    -2.933906e-08     3.544482e-05                           (NR   MIcro)
    2     dE    -3.068211e-08     2.875447e-05                           (NR   MIcro)
    2     dE    -3.152859e-08     2.894258e-05                           (NR   MIcro)
    2     dE    -3.237166e-08     2.444554e-05                           (NR   MIcro)
    2     dE    -3.294096e-08     2.203819e-05                           (NR   MIcro)
    2     dE    -3.338809e-08     2.408370e-05                           (NR   MIcro)
    2     dE    -3.383167e-08     1.736538e-05                           (NR   MIcro)
    2     dE    -3.404370e-08     1.074433e-05                           (NR   MIcro)
    2     dE    -3.425767e-08     1.535916e-05                           (NR   MIcro)
    2     dE    -3.451117e-08     1.462923e-05                           (NR   MIcro)
    2     dE    -3.482885e-08     1.599849e-05                           (NR   MIcro)
    2     dE    -3.505572e-08     1.122975e-05                           (NR   MIcro)
    2     dE    -3.519872e-08     9.739311e-06                           (NR   MIcro)
    2     dE    -3.528161e-08     6.380822e-06                           (NR   MIcro)
    2     dE    -3.533466e-08     6.593952e-06                           (NR   MIcro)
    2     dE    -3.538678e-08     7.246265e-06                           (NR   MIcro)
    2     dE    -3.546972e-08     9.563242e-06                           (NR   MIcro)
    3      -3255.701652464721     1.065947e-05                           (NR   MAcro)
    3     dE    -7.019802e-11     5.990287e-06                           (NR   MIcro)
    3     dE    -9.357549e-11     6.595930e-06                           (NR   MIcro)
    3     dE    -1.208730e-10     4.895512e-06                           (NR   MIcro)
    3     dE    -1.382877e-10     2.883873e-06                           (NR   MIcro)
    3     dE    -1.460429e-10     2.277848e-06                           (NR   MIcro)
    3     dE    -1.500896e-10     1.957717e-06                           (NR   MIcro)
    3     dE    -1.544503e-10     1.957570e-06                           (NR   MIcro)
    3     dE    -1.593045e-10     2.216907e-06                           (NR   MIcro)
    3     dE    -1.640477e-10     1.869602e-06                           (NR   MIcro)
    3     dE    -1.667122e-10     1.365106e-06                           (NR   MIcro)
    3     dE    -1.681056e-10     8.046931e-07                           (NR   MIcro)
    4      -3255.701652465044     8.310267e-07                           (NR   MAcro)

               *****************************************************
               *                     SUCCESS                       *
               *           SCF CONVERGED AFTER 123 CYCLES          *
               *****************************************************

 done (    6.416 sec)
Old exchange energy                            :    -52.138206152 Eh
New exchange energy                            :    -52.138203795 Eh
Exchange energy change after final integration :      0.000002357 Eh
Total energy after final integration           :  -3255.701650108 Eh
             **** ENERGY FILE WAS UPDATED (VOFZEV-S6.en.tmp) ****

----------------
TOTAL SCF ENERGY
----------------

Total Energy       :      -3255.70165010766095 Eh          -88592.14584 eV

Components:
Nuclear Repulsion  :       1828.19681696020484 Eh           49747.76452 eV
Electronic Energy  :      -5083.89846942524855 Eh         -138339.91042 eV
One Electron Energy:      -8112.66405266934089 Eh         -220756.81193 eV
Two Electron Energy:       3028.76558324409189 Eh           82416.90151 eV

Virial components:
Potential Energy   :      -6505.37500744014505 Eh         -177020.25349 eV
Kinetic Energy     :       3249.67335733248365 Eh           88428.10765 eV
Virial Ratio       :          2.00185504575762

DFT components:
N(Alpha)           :       80.000015603776 electrons
N(Beta)            :       79.000015504087 electrons
N(Total)           :      159.000031107863 electrons
E(X)               :     -155.850974374526 Eh       
E(C)               :       -5.916436727174 Eh       
E(XC)              :     -161.767411101700 Eh       

---------------
SCF CONVERGENCE
---------------

  Last Energy change         ...   -3.2333e-10  Tolerance :   1.0000e-08
  Last MAX-Density change    ...    1.8490e-03  Tolerance :   1.0000e-07
  Last RMS-Density change    ...    1.6213e-05  Tolerance :   5.0000e-09
  Last DIIS Error            ...    2.1612e-03  Tolerance :   5.0000e-07
  Last Orbital Gradient      ...    8.3103e-07  Tolerance :   1.0000e-05
  Last Orbital Rotation      ...    7.5897e-05  Tolerance :   1.0000e-05


----------------------
UHF SPIN CONTAMINATION
----------------------

Warning: in a DFT calculation there is little theoretical justification to 
         calculate <S**2> as in Hartree-Fock theory. We will do it anyways
         but you should keep in mind that the values have only limited relevance

Expectation value of <S**2>     :     2.460143
Ideal value S*(S+1) for S=0.5   :     0.750000
Deviation                       :     1.710143

----------------
ORBITAL ENERGIES
----------------
                 SPIN UP ORBITALS
  NO   OCC          E(Eh)            E(eV) 
   0   1.0000    -256.617056     -6982.9051 
   1   1.0000    -101.799087     -2770.0940 
   2   1.0000    -101.797607     -2770.0537 
   3   1.0000     -77.426702     -2106.8877 
   4   1.0000     -77.424269     -2106.8215 
   5   1.0000     -30.398081      -827.1738 
   6   1.0000     -26.223122      -713.5674 
   7   1.0000     -26.223075      -713.5661 
   8   1.0000     -26.220192      -713.4877 
   9   1.0000     -19.356828      -526.7261 
  10   1.0000     -19.354336      -526.6583 
  11   1.0000     -10.370616      -282.1988 
  12   1.0000     -10.368878      -282.1515 
  13   1.0000     -10.368261      -282.1347 
  14   1.0000     -10.365704      -282.0651 
  15   1.0000     -10.362199      -281.9698 
  16   1.0000     -10.359463      -281.8953 
  17   1.0000      -9.623519      -261.8693 
  18   1.0000      -9.622129      -261.8315 
  19   1.0000      -7.354844      -200.1355 
  20   1.0000      -7.353651      -200.1030 
  21   1.0000      -7.351240      -200.0374 
  22   1.0000      -7.350318      -200.0123 
  23   1.0000      -7.349503      -199.9902 
  24   1.0000      -7.349056      -199.9780 
  25   1.0000      -6.815892      -185.4699 
  26   1.0000      -6.813996      -185.4182 
  27   1.0000      -4.952230      -134.7570 
  28   1.0000      -4.951180      -134.7285 
  29   1.0000      -4.950952      -134.7223 
  30   1.0000      -4.950277      -134.7039 
  31   1.0000      -4.949309      -134.6775 
  32   1.0000      -4.948999      -134.6691 
  33   1.0000      -3.766486      -102.4913 
  34   1.0000      -2.526615       -68.7527 
  35   1.0000      -2.521860       -68.6233 
  36   1.0000      -2.516526       -68.4782 
  37   1.0000      -1.191119       -32.4120 
  38   1.0000      -1.188108       -32.3301 
  39   1.0000      -0.948397       -25.8072 
  40   1.0000      -0.945550       -25.7297 
  41   1.0000      -0.918925       -25.0052 
  42   1.0000      -0.914687       -24.8899 
  43   1.0000      -0.878941       -23.9172 
  44   1.0000      -0.876935       -23.8626 
  45   1.0000      -0.872821       -23.7507 
  46   1.0000      -0.872050       -23.7297 
  47   1.0000      -0.719525       -19.5793 
  48   1.0000      -0.715156       -19.4604 
  49   1.0000      -0.635816       -17.3014 
  50   1.0000      -0.634148       -17.2561 
  51   1.0000      -0.618640       -16.8341 
  52   1.0000      -0.616022       -16.7628 
  53   1.0000      -0.612832       -16.6760 
  54   1.0000      -0.612116       -16.6565 
  55   1.0000      -0.588398       -16.0111 
  56   1.0000      -0.584006       -15.8916 
  57   1.0000      -0.582184       -15.8420 
  58   1.0000      -0.581694       -15.8287 
  59   1.0000      -0.578059       -15.7298 
  60   1.0000      -0.575046       -15.6478 
  61   1.0000      -0.570007       -15.5107 
  62   1.0000      -0.557624       -15.1737 
  63   1.0000      -0.553666       -15.0660 
  64   1.0000      -0.553308       -15.0563 
  65   1.0000      -0.548360       -14.9216 
  66   1.0000      -0.538543       -14.6545 
  67   1.0000      -0.536402       -14.5963 
  68   1.0000      -0.534610       -14.5475 
  69   1.0000      -0.529256       -14.4018 
  70   1.0000      -0.486755       -13.2453 
  71   1.0000      -0.485460       -13.2100 
  72   1.0000      -0.481280       -13.0963 
  73   1.0000      -0.470192       -12.7946 
  74   1.0000      -0.464306       -12.6344 
  75   1.0000      -0.445960       -12.1352 
  76   1.0000      -0.443483       -12.0678 
  77   1.0000      -0.428449       -11.6587 
  78   1.0000      -0.425790       -11.5863 
  79   1.0000      -0.418843       -11.3973 
  80   0.0000      -0.300751        -8.1838 
  81   0.0000      -0.289813        -7.8862 
  82   0.0000      -0.119379        -3.2485 
  83   0.0000      -0.093812        -2.5527 
  84   0.0000      -0.089602        -2.4382 
  85   0.0000      -0.074727        -2.0334 
  86   0.0000      -0.063550        -1.7293 
  87   0.0000      -0.063160        -1.7187 
  88   0.0000      -0.053289        -1.4501 
  89   0.0000      -0.051924        -1.4129 
  90   0.0000      -0.051064        -1.3895 

                 SPIN DOWN ORBITALS
  NO   OCC          E(Eh)            E(eV) 
   0   1.0000    -256.616648     -6982.8940 
   1   1.0000    -101.799260     -2770.0987 
   2   1.0000    -101.797800     -2770.0590 
   3   1.0000     -77.426623     -2106.8855 
   4   1.0000     -77.424231     -2106.8204 
   5   1.0000     -30.375599      -826.5621 
   6   1.0000     -26.206403      -713.1125 
   7   1.0000     -26.203919      -713.0449 
   8   1.0000     -26.199319      -712.9197 
   9   1.0000     -19.356791      -526.7251 
  10   1.0000     -19.354399      -526.6600 
  11   1.0000     -10.370656      -282.1999 
  12   1.0000     -10.368910      -282.1524 
  13   1.0000     -10.368288      -282.1355 
  14   1.0000     -10.365727      -282.0658 
  15   1.0000     -10.362136      -281.9681 
  16   1.0000     -10.359451      -281.8950 
  17   1.0000      -9.623663      -261.8732 
  18   1.0000      -9.622285      -261.8357 
  19   1.0000      -7.355644      -200.1572 
  20   1.0000      -7.352068      -200.0599 
  21   1.0000      -7.351431      -200.0426 
  22   1.0000      -7.351258      -200.0379 
  23   1.0000      -7.350085      -200.0060 
  24   1.0000      -7.349724      -199.9961 
  25   1.0000      -6.815799      -185.4673 
  26   1.0000      -6.813952      -185.4171 
  27   1.0000      -4.952007      -134.7510 
  28   1.0000      -4.951122      -134.7269 
  29   1.0000      -4.950890      -134.7206 
  30   1.0000      -4.950199      -134.7018 
  31   1.0000      -4.949269      -134.6764 
  32   1.0000      -4.948964      -134.6682 
  33   1.0000      -3.711977      -101.0080 
  34   1.0000      -2.469404       -67.1959 
  35   1.0000      -2.465196       -67.0814 
  36   1.0000      -2.454381       -66.7871 
  37   1.0000      -1.191335       -32.4179 
  38   1.0000      -1.188277       -32.3347 
  39   1.0000      -0.948449       -25.8086 
  40   1.0000      -0.945418       -25.7261 
  41   1.0000      -0.919847       -25.0303 
  42   1.0000      -0.915466       -24.9111 
  43   1.0000      -0.879040       -23.9199 
  44   1.0000      -0.877051       -23.8658 
  45   1.0000      -0.872803       -23.7502 
  46   1.0000      -0.871931       -23.7264 
  47   1.0000      -0.716931       -19.5087 
  48   1.0000      -0.713770       -19.4227 
  49   1.0000      -0.633329       -17.2338 
  50   1.0000      -0.630388       -17.1537 
  51   1.0000      -0.616483       -16.7753 
  52   1.0000      -0.615217       -16.7409 
  53   1.0000      -0.613749       -16.7010 
  54   1.0000      -0.611483       -16.6393 
  55   1.0000      -0.584717       -15.9110 
  56   1.0000      -0.582773       -15.8581 
  57   1.0000      -0.578394       -15.7389 
  58   1.0000      -0.575624       -15.6635 
  59   1.0000      -0.572485       -15.5781 
  60   1.0000      -0.570592       -15.5266 
  61   1.0000      -0.555435       -15.1142 
  62   1.0000      -0.553650       -15.0656 
  63   1.0000      -0.552239       -15.0272 
  64   1.0000      -0.545998       -14.8574 
  65   1.0000      -0.537022       -14.6131 
  66   1.0000      -0.534387       -14.5414 
  67   1.0000      -0.530273       -14.4295 
  68   1.0000      -0.524265       -14.2660 
  69   1.0000      -0.493906       -13.4399 
  70   1.0000      -0.482638       -13.1333 
  71   1.0000      -0.479923       -13.0594 
  72   1.0000      -0.473033       -12.8719 
  73   1.0000      -0.468163       -12.7394 
  74   1.0000      -0.460904       -12.5418 
  75   1.0000      -0.441973       -12.0267 
  76   1.0000      -0.431882       -11.7521 
  77   1.0000      -0.428029       -11.6473 
  78   1.0000      -0.423226       -11.5166 
  79   0.0000      -0.268490        -7.3060 
  80   0.0000      -0.259316        -7.0563 
[...]
 31:    341.81   0.002435   12.31  0.002223  ( 0.017246 -0.041811 -0.013336)
 32:    345.70   0.003347   16.92  0.003022  ( 0.022349 -0.032840  0.037996)
 33:    386.58   0.001299    6.56  0.001049  ( 0.010658  0.027063  0.014233)
 34:    427.53   0.015932   80.51  0.011629  ( 0.008817  0.070374 -0.081234)
 35:    477.66   0.024479  123.71  0.015993  (-0.117658 -0.046336  0.001463)
 36:    502.85   0.015971   80.71  0.009911  (-0.015492  0.068098  0.070951)
 37:    680.92   0.002895   14.63  0.001327  (-0.033638  0.002458  0.013752)
 38:    681.64   0.001115    5.63  0.000510  ( 0.012763  0.015560  0.010270)
 39:    762.02   0.000941    4.76  0.000385  (-0.005742  0.017510  0.006773)
 40:    763.33   0.000832    4.21  0.000340  ( 0.004765 -0.008705  0.015551)
 41:    765.29   0.000788    3.98  0.000321  ( 0.002763  0.015473  0.008606)
 42:    765.48   0.000794    4.01  0.000323  ( 0.008988 -0.005087  0.014725)
 43:    779.21   0.000003    0.02  0.000001  ( 0.000441 -0.001000  0.000154)
 44:    779.92   0.000004    0.02  0.000002  ( 0.000079  0.000267 -0.001306)
 45:    867.09   0.002746   13.88  0.000988  (-0.005600  0.022263 -0.021481)
 46:    868.10   0.003763   19.02  0.001353  ( 0.015457 -0.032838 -0.005969)
 47:    870.66   0.004257   21.51  0.001526  ( 0.018109 -0.006491  0.033997)
 48:    871.91   0.004595   23.22  0.001645  ( 0.010763  0.029284  0.025910)
 49:    951.98   0.000042    0.21  0.000014  ( 0.001303 -0.002271  0.002603)
 50:    955.23   0.000386    1.95  0.000126  ( 0.010267  0.002997 -0.003436)
 51:    966.12   0.000816    4.13  0.000264  (-0.014362 -0.003603  0.006670)
 52:    967.16   0.014543   73.49  0.004692  (-0.020604  0.064818 -0.008159)
 53:    967.23   0.009116   46.07  0.002941  ( 0.028201 -0.037138  0.027688)
 54:    968.35   0.021954  110.95  0.007075  ( 0.022467  0.033573  0.073778)
 55:   1060.41   0.256241  1294.94  0.075408  (-0.255560 -0.009016  0.100082)
 56:   1107.11   0.055372  279.83  0.015608  ( 0.080176  0.093817  0.019445)
 57:   1323.81   0.008134   41.11  0.001917  (-0.016963  0.039798 -0.006773)
 58:   1324.17   0.008318   42.04  0.001960  (-0.000543 -0.033203  0.029285)
 59:   1325.13   0.002153   10.88  0.000507  ( 0.002823  0.001029 -0.022318)
 60:   1325.38   0.012175   61.53  0.002867  (-0.013927 -0.024595 -0.045472)
 61:   1339.27   0.015911   80.41  0.003707  (-0.056875 -0.010193  0.019205)
 62:   1340.51   0.000778    3.93  0.000181  (-0.002120  0.013284  0.000338)
 63:   1424.31   0.000027    0.14  0.000006  ( 0.001292 -0.000823 -0.001885)
 64:   1425.69   0.000021    0.10  0.000005  (-0.001070  0.001806  0.000346)
 65:   1435.82   0.000433    2.19  0.000094  (-0.005930  0.006466 -0.004140)
 66:   1437.59   0.000180    0.91  0.000039  (-0.002487 -0.002388 -0.005224)
 67:   1437.80   0.000095    0.48  0.000021  ( 0.001761 -0.004191 -0.000014)
 68:   1438.62   0.000053    0.27  0.000011  ( 0.001696 -0.002442 -0.001602)
 69:   1443.42   0.002151   10.87  0.000465  (-0.005747 -0.020753 -0.001162)
 70:   1445.39   0.002229   11.26  0.000481  ( 0.003439 -0.000419  0.021661)
 71:   1446.64   0.001968    9.95  0.000425  ( 0.006152 -0.013532  0.014268)
 72:   1446.97   0.000923    4.67  0.000199  (-0.004058  0.011654  0.006847)
 73:   1462.20   0.004257   21.51  0.000909  (-0.029294 -0.005419  0.004584)
 74:   1463.40   0.002396   12.11  0.000511  ( 0.014821  0.008804 -0.014621)
 75:   3061.41   0.000713    3.60  0.000073  (-0.001264  0.007121  0.004513)
 76:   3062.18   0.000758    3.83  0.000077  ( 0.002876 -0.000260  0.008300)
 77:   3063.21   0.000880    4.45  0.000090  ( 0.006133 -0.001824  0.006981)
 78:   3063.47   0.000975    4.93  0.000099  (-0.001317  0.009702  0.001857)
 79:   3066.19   0.000311    1.57  0.000032  (-0.004607 -0.000613 -0.003162)
 80:   3066.71   0.000212    1.07  0.000022  (-0.002195  0.003626  0.001897)
 81:   3156.00   0.000011    0.05  0.000001  ( 0.000130  0.001017 -0.000098)
 82:   3156.74   0.000020    0.10  0.000002  (-0.000421 -0.000340 -0.001292)
 83:   3157.71   0.000018    0.09  0.000002  (-0.001036  0.000388  0.000755)
 84:   3157.82   0.000005    0.03  0.000001  ( 0.000349  0.000617  0.000052)
 85:   3160.08   0.000281    1.42  0.000028  ( 0.004816 -0.001030  0.001864)
 86:   3161.18   0.000249    1.26  0.000025  ( 0.002931 -0.003938  0.000685)
 87:   3161.44   0.000284    1.43  0.000028  ( 0.004010  0.003305 -0.001006)
 88:   3162.01   0.000148    0.75  0.000015  ( 0.003373  0.001540 -0.000916)
 89:   3162.20   0.000287    1.45  0.000028  (-0.004182 -0.000803 -0.003187)
 90:   3163.62   0.000554    2.80  0.000055  (-0.003510  0.005223  0.003876)
 91:   3163.79   0.000143    0.72  0.000014  (-0.001261  0.003300  0.001274)
 92:   3164.32   0.000162    0.82  0.000016  (-0.000120  0.000150 -0.003997)

* The epsilon (eps) is given for a Dirac delta lineshape.
** The dipole moment derivative (T) already includes vibrational overlap.

The first frequency considered to be a vibration is 6
The total number of vibrations considered is 87


--------------------------
THERMOCHEMISTRY AT 298.15K
--------------------------

Temperature         ...   298.15 K
Pressure            ...     1.00 atm
Total Mass          ...   310.91 AMU
Quasi RRHO          ...     True
Cut-Off Frequency   ...     1.00 cm^-1

Throughout the following assumptions are being made:
  (1) The electronic state is orbitally nondegenerate
      but the spin degeneracy is treated
  (2) There are no thermally accessible electronically excited states
  (3) Hindered rotations indicated by low frequency modes are not
      treated as such but are treated as vibrations and this may
      cause some error
  (4) All equations used are the standard statistical mechanics
      equations for an ideal gas
  (5) All vibrations are strictly harmonic

freq.      21.25  E(vib)   ...       0.56 
freq.      27.77  E(vib)   ...       0.55 
freq.      33.31  E(vib)   ...       0.55 
freq.      55.36  E(vib)   ...       0.52 
freq.      65.89  E(vib)   ...       0.50 
freq.      79.18  E(vib)   ...       0.49 
freq.      87.35  E(vib)   ...       0.48 
freq.     104.72  E(vib)   ...       0.46 
freq.     111.57  E(vib)   ...       0.45 
freq.     127.79  E(vib)   ...       0.43 
freq.     148.49  E(vib)   ...       0.41 
freq.     161.95  E(vib)   ...       0.39 
freq.     164.73  E(vib)   ...       0.39 
freq.     198.60  E(vib)   ...       0.35 
freq.     199.99  E(vib)   ...       0.35 
freq.     200.39  E(vib)   ...       0.35 
freq.     205.24  E(vib)   ...       0.35 
freq.     207.36  E(vib)   ...       0.34 
freq.     230.74  E(vib)   ...       0.32 
freq.     237.37  E(vib)   ...       0.32 
freq.     239.60  E(vib)   ...       0.31 
freq.     256.09  E(vib)   ...       0.30 
freq.     260.72  E(vib)   ...       0.30 
freq.     312.04  E(vib)   ...       0.25 
freq.     333.39  E(vib)   ...       0.24 
freq.     341.81  E(vib)   ...       0.23 
freq.     345.70  E(vib)   ...       0.23 
freq.     386.58  E(vib)   ...       0.20 
freq.     427.53  E(vib)   ...       0.18 
freq.     477.66  E(vib)   ...       0.15 
freq.     502.85  E(vib)   ...       0.14 
freq.     680.92  E(vib)   ...       0.08 
freq.     681.64  E(vib)   ...       0.08 
freq.     762.02  E(vib)   ...       0.06 
freq.     763.33  E(vib)   ...       0.06 
freq.     765.29  E(vib)   ...       0.06 
freq.     765.48  E(vib)   ...       0.06 
freq.     779.21  E(vib)   ...       0.05 
freq.     779.92  E(vib)   ...       0.05 
freq.     867.09  E(vib)   ...       0.04 
freq.     868.10  E(vib)   ...       0.04 
freq.     870.66  E(vib)   ...       0.04 
freq.     871.91  E(vib)   ...       0.04 
freq.     951.98  E(vib)   ...       0.03 
freq.     955.23  E(vib)   ...       0.03 
freq.     966.12  E(vib)   ...       0.03 
freq.     967.16  E(vib)   ...       0.03 
freq.     967.23  E(vib)   ...       0.03 
freq.     968.35  E(vib)   ...       0.03 
freq.    1060.41  E(vib)   ...       0.02 
freq.    1107.11  E(vib)   ...       0.02 
freq.    1323.81  E(vib)   ...       0.01 
freq.    1324.17  E(vib)   ...       0.01 
freq.    1325.13  E(vib)   ...       0.01 
freq.    1325.38  E(vib)   ...       0.01 
freq.    1339.27  E(vib)   ...       0.01 
freq.    1340.51  E(vib)   ...       0.01 
freq.    1424.31  E(vib)   ...       0.00 
freq.    1425.69  E(vib)   ...       0.00 
freq.    1435.82  E(vib)   ...       0.00 
freq.    1437.59  E(vib)   ...       0.00 
freq.    1437.80  E(vib)   ...       0.00 
freq.    1438.62  E(vib)   ...       0.00 
freq.    1443.42  E(vib)   ...       0.00 
freq.    1445.39  E(vib)   ...       0.00 
freq.    1446.64  E(vib)   ...       0.00 
freq.    1446.97  E(vib)   ...       0.00 
freq.    1462.20  E(vib)   ...       0.00 
freq.    1463.40  E(vib)   ...       0.00 
freq.    3061.41  E(vib)   ...       0.00 
freq.    3062.18  E(vib)   ...       0.00 
freq.    3063.21  E(vib)   ...       0.00 
freq.    3063.47  E(vib)   ...       0.00 
freq.    3066.19  E(vib)   ...       0.00 
freq.    3066.71  E(vib)   ...       0.00 
freq.    3156.00  E(vib)   ...       0.00 
freq.    3156.74  E(vib)   ...       0.00 
freq.    3157.71  E(vib)   ...       0.00 
freq.    3157.82  E(vib)   ...       0.00 
freq.    3160.08  E(vib)   ...       0.00 
freq.    3161.18  E(vib)   ...       0.00 
freq.    3161.44  E(vib)   ...       0.00 
freq.    3162.01  E(vib)   ...       0.00 
freq.    3162.20  E(vib)   ...       0.00 
freq.    3163.62  E(vib)   ...       0.00 
freq.    3163.79  E(vib)   ...       0.00 
freq.    3164.32  E(vib)   ...       0.00 

------------
INNER ENERGY
------------

The inner energy is: U= E(el) + E(ZPE) + E(vib) + E(rot) + E(trans)
    E(el)   - is the total energy from the electronic structure calculation
              = E(kin-el) + E(nuc-el) + E(el-el) + E(nuc-nuc)
    E(ZPE)  - the the zero temperature vibrational energy from the frequency calculation
    E(vib)  - the the finite temperature correction to E(ZPE) due to population
              of excited vibrational states
    E(rot)  - is the rotational thermal energy
    E(trans)- is the translational thermal energy

Summary of contributions to the inner energy U:
Electronic energy                ...  -3255.73187413 Eh
Zero point energy                ...      0.24045690 Eh     150.89 kcal/mol
Thermal vibrational correction   ...      0.01911754 Eh      12.00 kcal/mol
Thermal rotational correction    ...      0.00141627 Eh       0.89 kcal/mol
Thermal translational correction ...      0.00141627 Eh       0.89 kcal/mol
-----------------------------------------------------------------------
Total thermal energy                  -3255.46946715 Eh


Summary of corrections to the electronic energy:
(perhaps to be used in another calculation)
Total thermal correction                  0.02195008 Eh      13.77 kcal/mol
Non-thermal (ZPE) correction              0.24045690 Eh     150.89 kcal/mol
-----------------------------------------------------------------------
Total correction                          0.26240698 Eh     164.66 kcal/mol


--------
ENTHALPY
--------

The enthalpy is H = U + kB*T
                kB is Boltzmann's constant
Total thermal energy              ...  -3255.46946715 Eh 
Thermal Enthalpy correction       ...      0.00094421 Eh       0.59 kcal/mol
-----------------------------------------------------------------------
Total Enthalpy                    ...  -3255.46852294 Eh


Note: Only C1 symmetry has been detected, increase convergence thresholds 
      if your molecule has a higher symmetry. Symmetry factor of 1.0 is   
      used for the rotational entropy correction. 
 

Note: Rotational entropy computed according to Herzberg 
Infrared and Raman Spectra, Chapter V,1, Van Nostrand Reinhold, 1945 
Point Group:  C1, Symmetry Number:   1  
Rotational constants in cm-1:     0.021320     0.008168     0.007560 

Vibrational entropy computed according to the QRRHO of S. Grimme
Chem.Eur.J. 2012 18 9955 using a reference frequency of 100.0 cm-1


-------
ENTROPY
-------

The entropy contributions are T*S = T*(S(el)+S(vib)+S(rot)+S(trans))
     S(el)   - electronic entropy
     S(vib)  - vibrational entropy
     S(rot)  - rotational entropy
     S(trans)- translational entropy
The entropies will be listed as multiplied by the temperature to get
units of energy

Electronic entropy                ...      0.00065446 Eh      0.41 kcal/mol
Vibrational entropy               ...      0.03527179 Eh     22.13 kcal/mol
Rotational entropy                ...      0.01590317 Eh      9.98 kcal/mol
Translational entropy             ...      0.02047778 Eh     12.85 kcal/mol
-----------------------------------------------------------------------
Final entropy term                ...      0.07230719 Eh     45.37 kcal/mol

In case the symmetry of your molecule has not been determined correctly
or in case you have a reason to use a different symmetry number we print 
out the resulting rotational entropy values for sn=1,12:

 non-linear molecules -----------------------------------
|  sn= 1 | S(rot)=       0.01590317 Eh      9.98 kcal/mol|
|  sn= 2 | S(rot)=       0.01524871 Eh      9.57 kcal/mol|
|  sn= 3 | S(rot)=       0.01486588 Eh      9.33 kcal/mol|
|  sn= 4 | S(rot)=       0.01459426 Eh      9.16 kcal/mol|
|  sn= 5 | S(rot)=       0.01438357 Eh      9.03 kcal/mol|
|  sn= 6 | S(rot)=       0.01421142 Eh      8.92 kcal/mol|
|  sn= 7 | S(rot)=       0.01406588 Eh      8.83 kcal/mol|
|  sn= 8 | S(rot)=       0.01393980 Eh      8.75 kcal/mol|
|  sn= 9 | S(rot)=       0.01382859 Eh      8.68 kcal/mol|
|  sn=10 | S(rot)=       0.01372911 Eh      8.62 kcal/mol|
|  sn=11 | S(rot)=       0.01363912 Eh      8.56 kcal/mol|
|  sn=12 | S(rot)=       0.01355697 Eh      8.51 kcal/mol|
 linear molecules ---------------------------------------
|  Dinfh | S(rot)=       0.00993801 Eh      6.24 kcal/mol|
|  Cinfv | S(rot)=       0.01059246 Eh      6.65 kcal/mol|
 --------------------------------------------------------


-------------------
GIBBS FREE ENERGY
-------------------

The Gibbs free energy is G = H - T*S

Total enthalpy                    ...  -3255.46852294 Eh 
Total entropy correction          ...     -0.07230719 Eh    -45.37 kcal/mol
-----------------------------------------------------------------------
Final Gibbs free energy         ...  -3255.54083013 Eh

For completeness - the Gibbs free energy minus the electronic energy
G-E(el)                           ...      0.19104400 Eh    119.88 kcal/mol


Maximum memory used throughout the entire PROP-calculation: 486.7 MB

--------------------------------
SUGGESTED CITATIONS FOR THIS RUN
--------------------------------

Below you find a list of papers that are relevant to this ORCA run
We neither can nor want to force you to cite these papers, but we appreciate if you do
You receive ORCA, which is the product of decades of hard work by many enthusiastic individuals, for free
The only thing we kindly ask in return is that you cite our papers,
We deeply appreciate it, if you show your appreciation for ORCA by not just citing the generic ORCA reference.

Please note that relegating all ORCA citations to the supporting information does *not* help us.
SI sections are not indexed - citations you put there will not count into any citation statistics
But we need these citations in order to attract the funding resources that allow us to do what we are doing

Therefore, if you are a happy ORCA user, please consider citing a few of the papers listed below in the main body of your paper

In addition to the list printed below, the program has created the file VOFZEV-S6.bibtex that contains the list in bibtex format
You can import this file easily into all common literature databanks and citation aid programs


List of essential papers. We consider these as the minimum necessary citations

  1. Neese,F.
     Software update: the ORCA program system, version 5.0
     WIRES Comput. Molec. Sci., 2022 12(1)e1606
     doi.org/10.1002/wcms.1606

List of papers to cite with high priority. The work reported in these papers was absolutely
necessary for this run to complete.
Our perspective: the developers of density functionals and basis sets usually get cited in chemistry papers
Good! But without the algorithms to do something with them, the functionals or basis sets would not do anything.
Hence, in our opinion, the algorithm design and method developments papers are equally worthy of getting cited

  1. Neese,F.
     An improvement of the resolution of the identity approximation for the formation of the Coulomb matrix
     J. Comp. Chem., 2003 24(14)1740-1747
     doi.org/10.1002/jcc.10318
  2. Neese,F.; Wennmohs,F.; Hansen,A.; Becker,U.
     Efficient, approximate and parallel Hartree-Fock and hybrid DFT calculations. A 'chain-of-spheres' algorithm for the Hartree-Fock exchange
     Chem. Phys., 2009 356(1-3)98-109
     doi.org/10.1016/j.chemphys.2008.10.036
  3. Bykov,D.; Petrenko,T.; Izsak,R.; Kossmann,S.; Becker,U.; Valeev,E.; Neese,F.
     Efficient implementation of the analytic second derivatives of Hartree-Fock and hybrid DFT energies: a detailed analysis of different approximations
     Molec. Phys., 2015 113 1961-1977
     doi.org/10.1080/00268976.2015.1025114
  4. Helmich-Paris,B.; de Souza,B.; Neese,F.; Izsák,R.
     An improved chain of spheres for exchange algorithm
     J. Chem. Phys., 2021 155 104109
     doi.org/doi: 10.1063/5.0058766.
  5. Helmich-Paris,B.
     A trust-region augmented Hessian implementation for restricted and unrestricted Hartree–Fock and Kohn–Sham methods
     J. Chem. Phys., 2021 154 164104
     doi.org/10.1063/5.0040798
  6. Neese,F.
     The SHARK Integral Generation and Digestion System
     J. Comp. Chem., 2022  1-16
     doi.org/10.1002/jcc.26942

List of suggested additional citations. These are papers that are important in the 'surrounding' of 
of this run, or papers that preceded the highly important papers. If you like your results we are grateful for a citation.

  1. Izsak,R.; Neese,F.
     An overlap fitted chain of spheres exchange method
     J. Chem. Phys., 2011 135 144105
     doi.org/10.1063/1.3646921
  2. Izsak,R.; Hansen,A.; Neese,F.
     The resolution of identity and chain of spheres approximations for the LPNO-CCSD singles Fock term
     Molec. Phys., 2012 110 2413-2417
     doi.org/10.1080/00268976.2012.687466
  3. Neese,F.
     The ORCA program system
     WIRES Comput. Molec. Sci., 2012 2(1)73-78
     doi.org/10.1002/wcms.81
  4. Izsak,R.; Neese,F.; Klopper,W.
     Robust fitting techniques in the chain of spheres approximation to the Fock exchange: The role of the complementary space
     J. Chem. Phys., 2013 139 
     doi.org/10.1063/1.4819264
  5. Neese,F.
     Software update: the ORCA program system, version 4.0
     WIRES Comput. Molec. Sci., 2018 8(1)1-6
     doi.org/10.1002/wcms.1327
  6. Neese,F.; Wennmohs,F.; Becker,U.; Riplinger,C.
     The ORCA quantum chemistry program package
     J. Chem. Phys., 2020 152 Art. No. L224108
     doi.org/10.1063/5.0004608

List of optional additional citations

  1. Neese,F.
     Approximate second-order SCF convergence for spin unrestricted wavefunctions
     Chem. Phys. Lett., 2000 325(1-3)93-98
     doi.org/10.1016/s0009-2614(00)00662-x

Timings for individual modules:

Sum of individual times          ...     5351.503 sec (=  89.192 min)
Startup calculation              ...      185.020 sec (=   3.084 min)   3.5 %
SCF iterations                   ...     3314.905 sec (=  55.248 min)  61.9 %
Property integrals               ...      300.073 sec (=   5.001 min)   5.6 %
SCF Response                     ...      846.015 sec (=  14.100 min)  15.8 %
Property calculations            ...      198.595 sec (=   3.310 min)   3.7 %
SCF Gradient evaluation          ...      505.880 sec (=   8.431 min)   9.5 %
Geometry relaxation              ...        1.016 sec (=   0.017 min)   0.0 %
                             ****ORCA TERMINATED NORMALLY****
TOTAL RUN TIME: 0 days 1 hours 30 minutes 51 seconds 974 msec
