
                                 *****************
                                 * O   R   C   A *
                                 *****************

                                            #,                                       
                                            ###                                      
                                            ####                                     
                                            #####                                    
                                            ######                                   
                                           ########,                                 
                                     ,,################,,,,,                         
                               ,,#################################,,                 
                          ,,##########################################,,             
                       ,#########################################, ''#####,          
                    ,#############################################,,   '####,        
                  ,##################################################,,,,####,       
                ,###########''''           ''''###############################       
              ,#####''   ,,,,##########,,,,          '''####'''          '####       
            ,##' ,,,,###########################,,,                        '##       
           ' ,,###''''                  '''############,,,                           
         ,,##''                                '''############,,,,        ,,,,,,###''
      ,#''                                            '''#######################'''  
     '                                                          ''''####''''         
             ,#######,   #######,   ,#######,      ##                                
            ,#'     '#,  ##    ##  ,#'     '#,    #''#        ,####,   ,####,        
            ##       ##  ##   ,#'  ##            #'  '#       #'       #'  '#        
            ##       ##  #######   ##           ,######,      #####,   #    #        
            '#,     ,#'  ##    ##  '#,     ,#' ,#      #,     #,   #   #,  ,#        
             '#######'   ##     ##  '#######'  #'      '#     '####' # '####'        



                #########################################################
                #                        -***-                          #
                #          Department of theory and spectroscopy        #
                #                                                       #
                #                      Frank Neese                      #
                #                                                       #
                #     Directorship, Architecture, Infrastructure        #
                #                    SHARK, DRIVERS                     #
                #        Core code/Algorithms in most modules           #
                #                                                       #
                #        Max Planck Institute fuer Kohlenforschung      #
                #                Kaiser Wilhelm Platz 1                 #
                #                 D-45470 Muelheim/Ruhr                 #
                #                      Germany                          #
                #                                                       #
                #                  All rights reserved                  #
                #                        -***-                          #
                #########################################################


                         Program Version 6.0.1  -  RELEASE   -


 With contributions from (in alphabetic order):
[Max-Planck-Institut fuer Kohlenforschung]                               
  Daniel Aravena         : Magnetic Suceptibility                        
  Michael Atanasov       : Ab Initio Ligand Field Theory (pilot matlab implementation)
  Alexander A. Auer      : GIAO ZORA, VPT2 properties, NMR spectrum      
  Ute Becker             : All parallelization in ORCA, NUMFREQ, NUMCALC 
  Giovanni Bistoni       : ED, misc. LED, open-shell LED, HFLD           
  Martin Brehm           : Molecular dynamics                            
  Dmytro Bykov           : pre 5.0 version of the SCF Hessian            
  Marcos Casanova-Páez   : Triplet and SCS-CIS(D). UHF-(DLPNO)-IP/EA/STEOM-CCSD. UHF-CVS-IP/STEOM-CCSD   
  Vijay G. Chilkuri      : MRCI spin determinant printing, contributions to CSF-ICE 
  Pauline Colinet        : FMM embedding                                 
  Dipayan Datta          : RHF DLPNO-CCSD density                        
  Achintya Kumar Dutta   : EOM-CC, STEOM-CC                              
  Nicolas Foglia         : Exact transition moments, OPA infrastructure, MCD improvements    
  Dmitry Ganyushin       : Spin-Orbit,Spin-Spin,Magnetic field MRCI      
  Miquel Garcia-Rates    : C-PCM and meta-GGA Hessian, CCSD/C-PCM, Gaussian charge scheme 
  Tiago L. C. Gouveia    : GS-ROHF, GS-ROCIS                             
  Yang Guo               : DLPNO-NEVPT2, F12-NEVPT2, CIM, IAO-localization        
  Andreas Hansen         : Spin unrestricted coupled pair/coupled cluster methods 
  Ingolf Harden          : AUTO-CI MPn and infrastructure                
  Benjamin Helmich-Paris : MC-RPA, TRAH-(SCF,CASSCF), AVAS, COSX integrals, SCF dyn. polar. 
  Lee Huntington         : MR-EOM, pCC                                   
  Robert Izsak           : Overlap fitted RIJCOSX, COSX-SCS-MP3, EOM     
  Riya Kayal             : Wick's Theorem for AUTO-CI, AUTO-CI UHF-CCSDT 
  Emily Kempfer          : AUTO-CI, RHF CISDT and CCSDT                  
  Christian Kollmar      : KDIIS, OOCD, Brueckner-CCSD(T), CCSD density, CASPT2, CASPT2-K, improved NEVPT2 
  Axel Koslowski         : Symmetry handling                             
  Simone Kossmann        : meta-GGA functionals, TD-DFT gradient, OOMP2, (MP2 Hessian; deprecated post 5.0) 
  Lucas Lang             : DCDCAS                                        
  Marvin Lechner         : AUTO-CI (C++ implementation), FIC-MRCC        
  Spencer Leger          : CASSCF response                               
  Dagmar Lenk            : GEPOL surface, SMD, ORCA-2-JSON               
  Dimitrios Liakos       : Extrapolation schemes; Compound Job, initial MDCI parallelization 
  Dimitrios Manganas     : Further ROCIS development; embedding schemes. LFT, Crystal Embedding 
  Dimitrios Pantazis     : SARC Basis sets                               
  Anastasios Papadopoulos: AUTO-CI, single reference methods and gradients 
  Taras Petrenko         : pre 6.0 DFT Hessian and TD-DFT gradient, (ASA, deprecated), ECA, 1-Electron XAS/XES, NRVS 
  Peter Pinski           : DLPNO-MP2, DLPNO-MP2 Gradient                 
  Christoph Reimann      : Effective Core Potentials                     
  Marius Retegan         : Local ZFS, SOC                                
  Christoph Riplinger    : Optimizer, TS searches, QM/MM, DLPNO-CCSD(T), (RO)-DLPNO pert. Triples 
  Michael Roemelt        : Original ROCIS implementation                 
  Masaaki Saitow         : Open-shell DLPNO-CCSD energy and density      
  Barbara Sandhoefer     : DKH picture change effects                    
  Kantharuban Sivalingam : CASSCF convergence/infrastructure, NEVPT2 and variants, FIC-MRCI 
  Bernardo de Souza      : ESD, SOC TD-DFT                               
  Georgi L. Stoychev     : AutoAux, RI-MP2 NMR, DLPNO-MP2 response, X2C  
  Van Anh Tran           : RI-MP2 g-tensors                              
  Willem Van den Heuvel  : Paramagnetic NMR                              
  Zikuan Wang            : NOTCH, Electric field optimization            
  Frank Wennmohs         : Technical directorship and infrastructure     
  Hang Xu                : AUTO-CI-Response properties                   
                                                                         
[FACCTs GmbH]                                                            
  Markus Bursch, Miquel Garcia-Rates, Christoph Riplinger, Bernardo de Souza, Georgi L. Stoychev 
                                                                 
  APM, Basis sets (HGBS, AHGBS, def-TZVP (Ac-Lr), def2-XVPD (La-Lu)), CI-OPT, improved COSX, DLPNO-Multilevel,           
  DOCKER, DRACO, updates on ESD, GOAT, IRC, LR-CPCM, MBIS, meta-GGA TD-DFT gradient, ML-optimized integration grids, 
  MM, NACMEs, nearIR, NEB, NEB-TS, NL-DFT gradient (VV10), 2- and 3-layer-ONIOM, interface openCOSMO-RS, QMMM,   
  Crystal-QMMM, SF, symmetry and pop. for TD-DFT, r2SCAN hybrids, SOLVATOR                                   
                                                                         
[Other institutions]                                                     
  V. Asgeirsson          : NEB                                           
  Christoph Bannwarth    : sTDA-DFT, sTD-DFT, PBEh-3c, B97-3c, D3        
  Sebastian Ehlert       : rSCAN, r2SCAN, r2SCAN-3c, D4, dhf basis sets  
  Marvin Friede          : D4 for Fr, Ra, Ac-Lr                          
  Lars Goerigk           : TD-DFT with DH, B97 family of functionals     
  Stefan Grimme          : VdW corrections, initial TS optimization, DFT functionals, gCP, sTDA/sTD-DF 
  Waldemar Hujo          : DFT-NL                                        
  H. Jonsson             : NEB                                           
  Holger Kruse           : gCP                                           
  Marcel Mueller         : wB97X-3c, vDZP basis set                      
  Hagen Neugebauer       : wr2SCAN                                       
  Tobias Risthaus        : range-separated hybrid DFT                    
  Lukas Wittmann         : regularized MP2, r2SCAN double-hybrids, wr2SCAN        
                                                                         
We gratefully acknowledge several colleagues who have allowed us to      
interface, adapt or use parts of their codes:                            
  Ed Valeev, F. Pavosevic, A. Kumar             : LibInt (2-el integral package), F12 methods 
  Garnet Chan, S. Sharma, J. Yang, R. Olivares  : DMRG                   
  Ulf Ekstrom                                   : XCFun DFT Library      
  Mihaly Kallay                                 : mrcc  (arbitrary order and MRCC methods)
  Frank Weinhold                                : gennbo (NPA and NBO analysis)           
  Simon Mueller                                 : openCOSMO-RS                            
  Christopher J. Cramer and Donald G. Truhlar   : smd solvation model                     
  S Lehtola, MJT Oliveira, MAL Marques          : LibXC Library                           
  Liviu Ungur et al                             : ANISO software                          


 Your calculation uses the libint2 library for the computation of 2-el integrals
 For citations please refer to: http://libint.valeyev.net

 Your ORCA version has been built with support for libXC version: 6.2.2
 For citations please refer to: https://libxc.gitlab.io

 This ORCA versions uses:
   CBLAS   interface :  Fast vector & matrix operations
   LAPACKE interface :  Fast linear algebra routines
   SCALAPACK package :  Parallel linear algebra routines
   Shared memory     :  Shared parallel matrices
   BLAS/LAPACK       :  OpenBLAS 0.3.27  USE64BITINT DYNAMIC_ARCH NO_AFFINITY Cooperlake SINGLE_THREADED
        Core in use  :  Cooperlake
   Copyright (c) 2011-2014, The OpenBLAS Project


NOTE: MaxCore=3600 MB was set to SCF,MP2,MDCI,CIPSI,MRCI and CIS
      => If you want to overwrite this, your respective input block should be placed after the MaxCore statement
Warning: RI is on but no J-basis has been assigned. Assigning Def2/J (nothing to worry about!)
================================================================================

----- Orbital basis set information -----
Your calculation utilizes the basis: def2-TZVP
   F. Weigend and R. Ahlrichs, Phys. Chem. Chem. Phys. 7, 3297 (2005).

----- AuxJ basis set information -----
Your calculation utilizes the auxiliary basis: def2/J
   F. Weigend, Phys. Chem. Chem. Phys. 8, 1057 (2006).

================================================================================
                                        WARNINGS
                       Please study these warnings very carefully!
================================================================================


WARNING: your system is open-shell and RHF/RKS was chosen
  ===> : WILL SWITCH to UHF/UKS


WARNING: Geometry Optimization
  ===> : Switching off AutoStart
         For restart on a previous wavefunction, please use MOREAD

================================================================================
                                       INPUT FILE
================================================================================
NAME = CELVEU-S6.inp
|  1> ! PBE0 def2-TZVP  Opt Freq DEFGRID3
|  2> 
|  3> %maxcore 3600
|  4> 
|  5> %pal
|  6>     nprocs 16
|  7> end
|  8> 
|  9> *xyz 0 6
| 10> Fe 5.4388 1.528 2.9971
| 11> Cl 5.3827 3.3488 1.7261
| 12> S 7.689 0.7352 3.1554
| 13> S 3.167 1.1505 3.6277
| 14> O 5.2954 0.0535 1.736
| 15> O 5.5788 2.0831 4.8568
| 16> C 7.5085 -0.5354 2.0228
| 17> C 8.6453 -1.4606 1.7953
| 18> C 9.9063 -0.9655 1.5233
| 19> C 10.9787 -1.8183 1.3749
| 20> C 10.8088 -3.1778 1.5085
| 21> C 9.5693 -3.6695 1.8077
| 22> C 8.4798 -2.8282 1.9437
| 23> N 6.3601 -0.7064 1.417
| 24> C 6.063 -1.6349 0.3215
| 25> C 3.2941 1.9088 5.1461
| 26> C 2.0651 2.0749 5.9696
| 27> C 0.9496 2.6827 5.4033
| 28> C -0.2395 2.7641 6.1155
| 29> C -0.3058 2.2443 7.3816
| 30> C 0.7889 1.639 7.9503
| 31> C 1.9671 1.5626 7.253
| 32> N 4.4624 2.2912 5.5912
| 33> C 4.7669 2.9656 6.8499
| 34> H 9.976 -0.0987 1.459
| 35> H 11.8435 -1.5214 1.187
| 36> H 11.4682 -3.709 1.4343
| 37> H 9.3883 -4.515 1.9536
| 38> H 7.6538 -3.1333 2.1761
| 39> H 5.4827 -2.278 0.5935
| 40> H 5.6109 -1.1185 -0.3462
| 41> H 6.8934 -2.0231 -0.0742
| 42> H 1.0409 2.9853 4.5007
| 43> H -1.0027 3.2156 5.6629
| 44> H -1.1218 2.3274 7.8885
| 45> H 0.7401 1.2994 8.8035
| 46> H 2.7267 1.1596 7.5918
| 47> H 5.2772 2.2698 7.3939
| 48> H 5.2821 3.6679 6.6768
| 49> H 4.0044 3.2567 7.295
| 50> *
| 51> 
| 52>                          ****END OF INPUT****
================================================================================

                       *****************************
                       * Geometry Optimization Run *
                       *****************************

Geometry optimization settings:
Update method            Update   .... BFGS
Choice of coordinates    CoordSys .... (2022) Redundant Internals
Initial Hessian          InHess   .... Almloef's Model
Max. no of cycles        MaxIter  .... 120

Convergence Tolerances:
Energy Change            TolE     ....  5.0000e-06 Eh
Max. Gradient            TolMAXG  ....  3.0000e-04 Eh/bohr
RMS Gradient             TolRMSG  ....  1.0000e-04 Eh/bohr
Max. Displacement        TolMAXD  ....  4.0000e-03 bohr
RMS Displacement         TolRMSD  ....  2.0000e-03 bohr
Strict Convergence                .... False

------------------------------------------------------------------------------
                        ORCA OPTIMIZATION COORDINATE SETUP
------------------------------------------------------------------------------

The optimization will be done in redundant internal coordinates (2022)
Making redundant internal coordinates   ...  (2022 redundants) done
Evaluating the initial hessian          ...  (Almloef) done
Evaluating the coordinates              ...  done
Calculating the B-matrix                .... done
Calculating the G-matrix                .... done
Diagonalizing the G-matrix              .... done
Small eigenvalue found = 4.773e-03
Small eigenvalue found = 5.747e-03
Small eigenvalue found = 1.018e-02
Small eigenvalue found = 2.103e-02
Small eigenvalue found = 2.305e-02
Small eigenvalue found = 2.777e-02
Small eigenvalue found = 2.967e-02
The first mode is                       ....  101
The number of degrees of freedom        ....  114

    -----------------------------------------------------------------
                    Redundant Internal Coordinates


    -----------------------------------------------------------------
         Definition                    Initial Value    Approx d2E/dq
    -----------------------------------------------------------------
      1. B(Cl  1,Fe  0)                  2.2212         0.669378   
      2. B(S   2,Fe  0)                  2.3910         0.431085   
      3. B(S   3,Fe  0)                  2.3877         0.436337   
      4. B(O   4,Fe  0)                  1.9455         0.735678   
      5. B(O   5,Fe  0)                  1.9458         0.734891   
      6. B(C   6,S   2)                  1.7117         0.516791   
      7. B(C   7,C   6)                  1.4833         0.443553   
      8. B(C   8,C   7)                  1.3817         0.644026   
      9. B(C   9,C   8)                  1.3782         0.652566   
     10. B(C  10,C   9)                  1.3766         0.656386   
     11. B(C  11,C  10)                  1.3666         0.680832   
     12. B(C  12,C  11)                  1.3832         0.640559   
     13. B(C  12,C   7)                  1.3855         0.635100   
     14. B(N  13,C   6)                  1.3096         0.751875   
     15. B(N  13,O   4)                  1.3464         0.588264   
     16. B(C  14,N  13)                  1.4665         0.422562   
     17. B(C  15,S   3)                  1.7020         0.535517   
     18. B(C  16,C  15)                  1.4887         0.434804   
     19. B(C  17,C  16)                  1.3908         0.622854   
     20. B(C  18,C  17)                  1.3885         0.628347   
     21. B(C  19,C  18)                  1.3703         0.671802   
     22. B(C  20,C  19)                  1.3741         0.662356   
     23. B(C  21,C  20)                  1.3712         0.669446   
     24. B(C  21,C  16)                  1.3853         0.635581   
     25. B(N  22,C  15)                  1.3074         0.758009   
     26. B(N  22,O   5)                  1.3524         0.575431   
     27. B(C  23,N  22)                  1.4601         0.432566   
     28. B(H  24,C   8)                  0.8720         0.802183   
     29. B(H  25,C   9)                  0.9335         0.640005   
     30. B(H  26,C  10)                  0.8500         0.869640   
     31. B(H  27,C  11)                  0.8769         0.787849   
     32. B(H  28,C  12)                  0.9107         0.695804   
     33. B(H  29,C  14)                  0.9079         0.702956   
     34. B(H  30,C  14)                  0.9575         0.585803   
     35. B(H  31,C  14)                  0.9984         0.504120   
     36. B(H  32,C  17)                  0.9563         0.588392   
     37. B(H  33,C  18)                  0.9956         0.509412   
     38. B(H  34,C  19)                  0.9642         0.571618   
     39. B(H  35,C  20)                  0.9196         0.673425   
     40. B(H  36,C  21)                  0.9242         0.662081   
     41. B(H  37,C  23)                  1.0200         0.465630   
     42. B(H  38,C  23)                  0.8880         0.756194   
     43. B(H  39,C  23)                  0.9297         0.648997   
     44. A(O   4,Fe  0,O   5)          147.2488         0.580427   
     45. A(S   3,Fe  0,O   5)           82.0185         0.550361   
     46. A(S   2,Fe  0,S   3)          145.6397         0.521053   
     47. A(S   2,Fe  0,O   5)           87.9142         0.549098   
     48. A(Cl  1,Fe  0,O   5)          108.3515         0.592882   
     49. A(S   3,Fe  0,O   4)           88.9250         0.550473   
     50. A(Cl  1,Fe  0,S   3)          104.8736         0.562169   
     51. A(Cl  1,Fe  0,O   4)          104.3885         0.593004   
     52. A(S   2,Fe  0,O   4)           82.0091         0.549210   
     53. A(Cl  1,Fe  0,S   2)          109.4783         0.560873   
     54. A(Fe  0,S   2,C   6)           95.9167         0.484998   
     55. A(Fe  0,S   3,C  15)           95.4008         0.489297   
     56. A(Fe  0,O   4,N  13)          121.5364         0.489239   
     57. A(Fe  0,O   5,N  22)          120.2320         0.487150   
     58. A(S   2,C   6,C   7)          118.9272         0.417511   
     59. A(S   2,C   6,N  13)          119.7021         0.456146   
     60. A(C   7,C   6,N  13)          121.3109         0.420398   
     61. A(C   6,C   7,C   8)          120.4066         0.411641   
     62. A(C   6,C   7,C  12)          120.5112         0.410623   
     63. A(C   8,C   7,C  12)          118.9316         0.438949   
     64. A(C   9,C   8,H  24)          123.0236         0.409050   
     65. A(C   7,C   8,H  24)          116.3372         0.408097   
     66. A(C   7,C   8,C   9)          120.6380         0.441104   
     67. A(C  10,C   9,H  25)          116.6156         0.393502   
     68. A(C   8,C   9,H  25)          123.0770         0.393100   
     69. A(C   8,C   9,C  10)          120.3068         0.442623   
     70. A(C   9,C  10,C  11)          119.2434         0.446033   
     71. A(C   9,C  10,H  26)          120.8622         0.415384   
     72. A(C  11,C  10,H  26)          119.8593         0.418096   
     73. A(C  10,C  11,H  27)          124.7892         0.410820   
     74. A(C  10,C  11,C  12)          121.1368         0.444066   
     75. A(C  12,C  11,H  27)          114.0486         0.406409   
     76. A(C  11,C  12,H  28)          122.3932         0.397608   
     77. A(C   7,C  12,C  11)          119.7177         0.438522   
     78. A(C   7,C  12,H  28)          117.7975         0.397011   
     79. A(C   6,N  13,C  14)          127.2936         0.414085   
     80. A(O   4,N  13,C  14)          111.9709         0.393940   
     81. A(O   4,N  13,C   6)          120.6733         0.436422   
     82. A(H  30,C  14,H  31)          109.0272         0.332169   
     83. A(H  29,C  14,H  31)          112.0195         0.342413   
     84. A(N  13,C  14,H  31)          111.9470         0.347971   
     85. A(H  29,C  14,H  30)          106.8057         0.351174   
     86. A(N  13,C  14,H  30)          105.9685         0.356924   
     87. A(N  13,C  14,H  29)          110.7426         0.368211   
     88. A(S   3,C  15,C  16)          118.7879         0.418679   
     89. A(C  16,C  15,N  22)          121.1158         0.419515   
     90. A(S   3,C  15,N  22)          120.0516         0.459797   
     91. A(C  15,C  16,C  17)          119.0551         0.407769   
     92. A(C  17,C  16,C  21)          118.8205         0.436371   
     93. A(C  15,C  16,C  21)          121.9789         0.409231   
     94. A(C  18,C  17,H  32)          123.1840         0.384824   
     95. A(C  16,C  17,H  32)          116.4865         0.384237   
     96. A(C  16,C  17,C  18)          120.2412         0.435472   
     97. A(C  17,C  18,C  19)          119.5480         0.441456   
     98. A(C  19,C  18,H  33)          123.7107         0.379696   
     99. A(C  17,C  18,H  33)          116.7385         0.375329   
    100. A(C  18,C  19,H  34)          119.6043         0.387376   
    101. A(C  20,C  19,H  34)          119.6428         0.386421   
    102. A(C  18,C  19,C  20)          120.7282         0.445686   
    103. A(C  19,C  20,C  21)          119.9077         0.445402   
    104. A(C  21,C  20,H  35)          119.7907         0.398407   
    105. A(C  19,C  20,H  35)          120.2905         0.397662   
    106. A(C  16,C  21,C  20)          120.7496         0.442089   
    107. A(C  20,C  21,H  36)          122.9613         0.397219   
    108. A(C  16,C  21,H  36)          116.2770         0.393619   
    109. A(C  15,N  22,C  23)          127.9484         0.416413   
    110. A(O   5,N  22,C  23)          111.5338         0.394033   
    111. A(O   5,N  22,C  15)          120.5166         0.435328   
    112. A(H  38,C  23,H  39)          108.7555         0.361795   
    113. A(H  37,C  23,H  39)          111.6279         0.333439   
    114. A(N  22,C  23,H  39)          112.7257         0.364665   
    115. A(H  37,C  23,H  38)          110.6817         0.342045   
    116. A(N  22,C  23,H  38)          108.5561         0.374370   
    117. A(N  22,C  23,H  37)          104.4193         0.344708   
    118. D(C   6,S   2,Fe  0,S   3)     76.8166         0.001793   
    119. D(C   6,S   2,Fe  0,O   5)    149.3917         0.001793   
    120. D(C   6,S   2,Fe  0,Cl  1)   -101.8668         0.001793   
    121. D(C   6,S   2,Fe  0,O   4)      0.6376         0.001793   
    122. D(C  15,S   3,Fe  0,O   4)    158.0502         0.001800   
    123. D(C  15,S   3,Fe  0,S   2)     83.9405         0.001800   
    124. D(C  15,S   3,Fe  0,O   5)      9.6165         0.001800   
    125. D(C  15,S   3,Fe  0,Cl  1)    -97.3438         0.001800   
    126. D(N  13,O   4,Fe  0,O   5)    -76.2831         0.003976   
    127. D(N  13,O   4,Fe  0,S   3)   -149.6717         0.003976   
    128. D(N  13,O   4,Fe  0,S   2)     -2.9119         0.003976   
    129. D(N  13,O   4,Fe  0,Cl  1)    105.2444         0.003976   
    130. D(N  22,O   5,Fe  0,S   3)    -12.7311         0.003970   
    131. D(N  22,O   5,Fe  0,Cl  1)     90.3645         0.003970   
    132. D(N  22,O   5,Fe  0,S   2)   -159.7910         0.003970   
    133. D(N  22,O   5,Fe  0,O   4)    -88.0766         0.003970   
    134. D(C   7,C   6,S   2,Fe  0)   -175.6690         0.005472   
    135. D(N  13,C   6,S   2,Fe  0)      1.5549         0.005472   
    136. D(C  12,C   7,C   6,N  13)    -52.5153         0.013419   
    137. D(C  12,C   7,C   6,S   2)    124.6623         0.013419   
    138. D(C   8,C   7,C   6,N  13)    131.9924         0.013419   
    139. D(C   8,C   7,C   6,S   2)    -50.8301         0.013419   
    140. D(C   9,C   8,C   7,C   6)    176.8559         0.028842   
    141. D(H  24,C   8,C   7,C  12)   -178.3206         0.028842   
    142. D(H  24,C   8,C   7,C   6)     -2.7577         0.028842   
    143. D(C   9,C   8,C   7,C  12)      1.2930         0.028842   
    144. D(H  25,C   9,C   8,H  24)     -0.7101         0.029667   
    145. D(H  25,C   9,C   8,C   7)    179.7029         0.029667   
    146. D(C  10,C   9,C   8,H  24)    178.9819         0.029667   
    147. D(C  10,C   9,C   8,C   7)     -0.6050         0.029667   
    148. D(C  11,C  10,C   9,C   8)     -0.8867         0.030040   
    149. D(H  26,C  10,C   9,H  25)      0.9829         0.030040   
    150. D(H  26,C  10,C   9,C   8)   -178.7284         0.030040   
    151. D(C  11,C  10,C   9,H  25)    178.8247         0.030040   
    152. D(H  27,C  11,C  10,H  26)      1.4966         0.032499   
    153. D(H  27,C  11,C  10,C   9)   -176.3672         0.032499   
    154. D(C  12,C  11,C  10,H  26)    179.5514         0.032499   
    155. D(C  12,C  11,C  10,C   9)      1.6876         0.032499   
    156. D(H  28,C  12,C  11,H  27)      0.8149         0.028512   
    157. D(H  28,C  12,C  11,C  10)   -177.4358         0.028512   
    158. D(C   7,C  12,C  11,H  27)    177.2576         0.028512   
    159. D(C   7,C  12,C  11,C  10)     -0.9931         0.028512   
    160. D(H  28,C  12,C   7,C   8)    176.1000         0.027996   
    161. D(H  28,C  12,C   7,C   6)      0.5419         0.027996   
    162. D(C  11,C  12,C   7,C   8)     -0.5046         0.027996   
    163. D(C  11,C  12,C   7,C   6)   -176.0627         0.027996   
    164. D(C  14,N  13,C   6,C   7)    -10.1126         0.047499   
    165. D(C  14,N  13,C   6,S   2)    172.7314         0.047499   
    166. D(O   4,N  13,C   6,C   7)    172.9937         0.047499   
    167. D(O   4,N  13,C   6,S   2)     -4.1624         0.047499   
    168. D(C  14,N  13,O   4,Fe  0)   -172.3332         0.029560   
    169. D(C   6,N  13,O   4,Fe  0)      5.0025         0.029560   
    170. D(H  31,C  14,N  13,O   4)    165.0913         0.015225   
    171. D(H  30,C  14,N  13,C   6)   -130.7723         0.015225   
    172. D(H  30,C  14,N  13,O   4)     46.3470         0.015225   
    173. D(H  29,C  14,N  13,C   6)    113.7636         0.015225   
    174. D(H  29,C  14,N  13,O   4)    -69.1172         0.015225   
    175. D(N  22,C  15,S   3,Fe  0)     -7.8334         0.005781   
    176. D(C  16,C  15,S   3,Fe  0)    174.5724         0.005781   
    177. D(C  21,C  16,C  15,N  22)    -54.8871         0.012908   
    178. D(C  21,C  16,C  15,S   3)    122.6805         0.012908   
    179. D(C  17,C  16,C  15,N  22)    129.5499         0.012908   
    180. D(C  17,C  16,C  15,S   3)    -52.8826         0.012908   
    181. D(H  32,C  17,C  16,C  21)   -177.0313         0.026860   
    182. D(H  32,C  17,C  16,C  15)     -1.3267         0.026860   
    183. D(C  18,C  17,C  16,C  21)     -0.3425         0.026860   
    184. D(C  18,C  17,C  16,C  15)    175.3621         0.026860   
    185. D(H  33,C  18,C  17,H  32)     -3.9729         0.027366   
    186. D(H  33,C  18,C  17,C  16)    179.5686         0.027366   
    187. D(C  19,C  18,C  17,H  32)    176.6126         0.027366   
    188. D(C  19,C  18,C  17,C  16)      0.1541         0.027366   
    189. D(H  34,C  19,C  18,H  33)     -1.4799         0.031577   
    190. D(H  34,C  19,C  18,C  17)    177.8915         0.031577   
    191. D(C  20,C  19,C  18,H  33)   -179.6660         0.031577   
    192. D(C  20,C  19,C  18,C  17)     -0.2945         0.031577   
    193. D(H  35,C  20,C  19,H  34)      1.2231         0.030629   
    194. D(H  35,C  20,C  19,C  18)    179.4084         0.030629   
    195. D(C  21,C  20,C  19,H  34)   -177.5565         0.030629   
    196. D(C  21,C  20,C  19,C  18)      0.6288         0.030629   
    197. D(H  36,C  21,C  20,C  19)   -179.5135         0.031339   
    198. D(C  16,C  21,C  20,H  35)   -179.6107         0.031339   
    199. D(C  16,C  21,C  20,C  19)     -0.8250         0.031339   
    200. D(H  36,C  21,C  16,C  17)    179.4527         0.028041   
    201. D(H  36,C  21,C  16,C  15)      3.8795         0.028041   
    202. D(C  20,C  21,C  16,C  17)      0.6798         0.028041   
    203. D(H  36,C  21,C  20,H  35)      1.7008         0.031339   
    204. D(C  20,C  21,C  16,C  15)   -174.8933         0.028041   
    205. D(C  23,N  22,C  15,C  16)     -3.2441         0.048366   
    206. D(C  23,N  22,C  15,S   3)    179.2188         0.048366   
    207. D(O   5,N  22,C  15,C  16)    177.1828         0.048366   
    208. D(O   5,N  22,C  15,S   3)     -0.3543         0.048366   
    209. D(C  23,N  22,O   5,Fe  0)   -167.9150         0.028188   
    210. D(C  15,N  22,O   5,Fe  0)     11.7231         0.028188   
    211. D(H  39,C  23,N  22,O   5)    169.4359         0.015953   
    212. D(H  38,C  23,N  22,C  15)   -130.7199         0.015953   
    213. D(H  38,C  23,N  22,O   5)     48.8847         0.015953   
    214. D(H  37,C  23,N  22,C  15)    111.1828         0.015953   
    215. D(H  37,C  23,N  22,O   5)    -69.2126         0.015953   
    -----------------------------------------------------------------

Number of atoms                         .... 40
Number of degrees of freedom            .... 215


         *************************************************************
         *                GEOMETRY OPTIMIZATION CYCLE   1            *
         *************************************************************
---------------------------------
CARTESIAN COORDINATES (ANGSTROEM)
---------------------------------
  Fe     5.438800    1.528000    2.997100
  Cl     5.382700    3.348800    1.726100
  S      7.689000    0.735200    3.155400
  S      3.167000    1.150500    3.627700
  O      5.295400    0.053500    1.736000
  O      5.578800    2.083100    4.856800
  C      7.508500   -0.535400    2.022800
  C      8.645300   -1.460600    1.795300
  C      9.906300   -0.965500    1.523300
  C     10.978700   -1.818300    1.374900
  C     10.808800   -3.177800    1.508500
  C      9.569300   -3.669500    1.807700
  C      8.479800   -2.828200    1.943700
  N      6.360100   -0.706400    1.417000
  C      6.063000   -1.634900    0.321500
  C      3.294100    1.908800    5.146100
  C      2.065100    2.074900    5.969600
  C      0.949600    2.682700    5.403300
  C     -0.239500    2.764100    6.115500
  C     -0.305800    2.244300    7.381600
  C      0.788900    1.639000    7.950300
  C      1.967100    1.562600    7.253000
  N      4.462400    2.291200    5.591200
  C      4.766900    2.965600    6.849900
  H      9.976000   -0.098700    1.459000
  H     11.843500   -1.521400    1.187000
  H     11.468200   -3.709000    1.434300
  H      9.388300   -4.515000    1.953600
  H      7.653800   -3.133300    2.176100
  H      5.482700   -2.278000    0.593500
  H      5.610900   -1.118500   -0.346200
  H      6.893400   -2.023100   -0.074200
  H      1.040900    2.985300    4.500700
  H     -1.002700    3.215600    5.662900
  H     -1.121800    2.327400    7.888500
  H      0.740100    1.299400    8.803500
  H      2.726700    1.159600    7.591800
  H      5.277200    2.269800    7.393900
  H      5.282100    3.667900    6.676800
  H      4.004400    3.256700    7.295000

----------------------------
CARTESIAN COORDINATES (A.U.)
----------------------------
  NO LB      ZA    FRAG     MASS         X           Y           Z
   0 Fe   26.0000    0    55.850   10.277842    2.887502    5.663698
   1 Cl   17.0000    0    35.453   10.171829    6.328315    3.261856
   2 S    16.0000    0    32.060   14.530104    1.389327    5.962842
   3 S    16.0000    0    32.060    5.984763    2.174130    6.855359
   4 O     8.0000    0    15.999   10.006856    0.101100    3.280565
   5 O     8.0000    0    15.999   10.542404    3.936489    9.178022
   6 C     6.0000    0    12.011   14.189009   -1.011759    3.822538
   7 C     6.0000    0    12.011   16.337249   -2.760134    3.392625
   8 C     6.0000    0    12.011   18.720194   -1.824531    2.878620
   9 C     6.0000    0    12.011   20.746736   -3.436089    2.598184
  10 C     6.0000    0    12.011   20.425672   -6.005172    2.850652
  11 C     6.0000    0    12.011   18.083356   -6.934350    3.416058
  12 C     6.0000    0    12.011   16.024500   -5.344523    3.673061
  13 N     7.0000    0    14.007   12.018847   -1.334903    2.677742
  14 C     6.0000    0    12.011   11.457410   -3.089513    0.607547
  15 C     6.0000    0    12.011    6.224947    3.607109    9.724720
  16 C     6.0000    0    12.011    3.902473    3.920993   11.280909
  17 C     6.0000    0    12.011    1.794484    5.069568   10.210757
  18 C     6.0000    0    12.011   -0.452589    5.223392   11.556620
  19 C     6.0000    0    12.011   -0.577878    4.241112   13.949202
  20 C     6.0000    0    12.011    1.490805    3.097261   15.023890
  21 C     6.0000    0    12.011    3.717280    2.952886   13.706184
  22 N     7.0000    0    14.007    8.432714    4.329741   10.565837
  23 C     6.0000    0    12.011    9.008136    5.604172   12.944435
  24 H     1.0000    0     1.008   18.851908   -0.186516    2.757110
  25 H     1.0000    0     1.008   22.380971   -2.875029    2.243105
  26 H     1.0000    0     1.008   21.671757   -7.008994    2.710434
  27 H     1.0000    0     1.008   17.741316   -8.532113    3.691769
  28 H     1.0000    0     1.008   14.463586   -5.921079    4.112233
  29 H     1.0000    0     1.008   10.360801   -4.304796    1.121552
  30 H     1.0000    0     1.008   10.603064   -2.113659   -0.654223
  31 H     1.0000    0     1.008   13.026638   -3.823105   -0.140218
  32 H     1.0000    0     1.008    1.967016    5.641399    8.505090
  33 H     1.0000    0     1.008   -1.894828    6.076603   10.701330
  34 H     1.0000    0     1.008   -2.119895    4.398149   14.907105
  35 H     1.0000    0     1.008    1.398586    2.455510   16.636204
  36 H     1.0000    0     1.008    5.152716    2.191326   14.346423
  37 H     1.0000    0     1.008    9.972463    4.289300   13.972446
  38 H     1.0000    0     1.008    9.981722    6.931326   12.617323
  39 H     1.0000    0     1.008    7.567219    6.154271   13.785552

--------------------------------
INTERNAL COORDINATES (ANGSTROEM)
--------------------------------
 Fe     0   0   0     0.000000000000     0.00000000     0.00000000
 Cl     1   0   0     2.221238584664     0.00000000     0.00000000
 S      1   2   0     2.391022954720   109.47833357     0.00000000
 S      1   2   3     2.387726502345   104.87360606   180.76881556
 O      1   2   3     1.945530010049   104.38845842   273.52548576
 O      1   2   3     1.945821189113   108.35152141    94.39609227
 C      3   1   2     1.711662165849    95.91673244   258.13320967
 C      7   3   1     1.483261787413   118.92720145   184.33097454
 C      8   7   3     1.381748533562   120.40663541   309.16993398
 C      9   8   7     1.378162602888   120.63795231   176.85585127
 C     10   9   8     1.376573724869   120.30678061   359.39495978
 C     11  10   9     1.366619837409   119.24337359   359.11332872
 C     12  11  10     1.383217965470   121.13679190     1.68762045
 N      7   3   1     1.309601924250   119.70205036     1.55489355
 C     14   7   3     1.466458628806   127.29363305   172.73135268
 C      4   1   2     1.701972931630    95.40081188   262.65621659
 C     16   4   1     1.488684808816   118.78787846   174.57242339
 C     17  16   4     1.390847504222   119.05514374   307.11741089
 C     18  17  16     1.388457276980   120.24116969   175.36205979
 C     19  18  17     1.370254334056   119.54799319     0.15408686
 C     20  19  18     1.374109118666   120.72820522   359.70545651
 C     21  20  19     1.371210957512   119.90766828     0.62883721
 N     16   4   1     1.307390018319   120.05155439   352.16655760
 C     23  16   4     1.460089483559   127.94841210   179.21879059
 H      9   8   7     0.871971800003   116.33721922   357.24226092
 H     10   9   8     0.933453298243   123.07695352   179.70291470
 H     11  10   9     0.849992611733   120.86223786   181.27156749
 H     12  11  10     0.876879729495   124.78917748   183.63284243
 H     13  12  11     0.910698506642   122.39324951   182.56418138
 H     15  14   7     0.907915029064   110.74260807   113.76355833
 H     15  14   7     0.957541988635   105.96850919   229.22771559
 H     15  14   7     0.998419696320   111.94701063   347.97198937
 H     18  17  16     0.956341576007   116.48645209   358.67328517
 H     19  18  17     0.995576842840   116.73854786   179.56861025
 H     20  19  18     0.964214301906   119.60430014   177.89149769
 H     21  20  19     0.919597651150   120.29046199   179.40843247
 H     22  21  20     0.924222159440   122.96128641   180.48649367
 H     24  23  16     1.020039082585   104.41929434   111.18280909
 H     24  23  16     0.888042757980   108.55612931   229.28010694
 H     24  23  16     0.929655565250   112.72574843   349.83127203

---------------------------
INTERNAL COORDINATES (A.U.)
---------------------------
 Fe     0   0   0     0.000000000000     0.00000000     0.00000000
 Cl     1   0   0     4.197532603114     0.00000000     0.00000000
 S      1   2   0     4.518378564341   109.47833357     0.00000000
 S      1   2   3     4.512149172137   104.87360606   180.76881556
 O      1   2   3     3.676518904317   104.38845842   273.52548576
 O      1   2   3     3.677069153004   108.35152141    94.39609227
 C      3   1   2     3.234572727250    95.91673244   258.13320967
 C      7   3   1     2.802958563121   118.92720145   184.33097454
 C      8   7   3     2.611126314379   120.40663541   309.16993398
 C      9   8   7     2.604349887471   120.63795231   176.85585127
 C     10   9   8     2.601347343154   120.30678061   359.39495978
 C     11  10   9     2.582537221887   119.24337359   359.11332872
 C     12  11  10     2.613903138259   121.13679190     1.68762045
 N      7   3   1     2.474788981289   119.70205036     1.55489355
 C     14   7   3     2.771205195169   127.29363305   172.73135268
 C      4   1   2     3.216262728127    95.40081188   262.65621659
 C     16   4   1     2.813206588391   118.78787846   174.57242339
 C     17  16   4     2.628320877027   119.05514374   307.11741089
 C     18  17  16     2.623804002143   120.24116969   175.36205979
 C     19  18  17     2.589405425185   119.54799319     0.15408686
 C     20  19  18     2.596689912402   120.72820522   359.70545651
 C     21  20  19     2.591213181529   119.90766828     0.62883721
 N     16   4   1     2.470609084845   120.05155439   352.16655760
 C     23  16   4     2.759169254945   127.94841210   179.21879059
 H      9   8   7     1.647787898508   116.33721922   357.24226092
 H     10   9   8     1.763971092484   123.07695352   179.70291470
 H     11  10   9     1.606253252031   120.86223786   181.27156749
 H     12  11  10     1.657062541133   124.78917748   183.63284243
 H     13  12  11     1.720970768124   122.39324951   182.56418138
 H     15  14   7     1.715710757802   110.74260807   113.76355833
 H     15  14   7     1.809492120251   105.96850919   229.22771559
 H     15  14   7     1.886739792758   111.94701063   347.97198937
 H     18  17  16     1.807223669136   116.48645209   358.67328517
 H     19  18  17     1.881367578242   116.73854786   179.56861025
 H     20  19  18     1.822100965012   119.60430014   177.89149769
 H     21  20  19     1.737787714070   120.29046199   179.40843247
 H     22  21  20     1.746526768243   122.96128641   180.48649367
 H     24  23  16     1.927594511981   104.41929434   111.18280909
 H     24  23  16     1.678157607794   108.55612931   229.28010694
 H     24  23  16     1.756794417198   112.72574843   349.83127203

---------------------
BASIS SET INFORMATION
---------------------
There are 7 groups of distinct atoms

 Group   1 Type Fe  : 17s11p7d1f contracted to 6s4p4d1f pattern {842111/6311/4111/1}
 Group   2 Type Cl  : 14s9p3d1f contracted to 5s5p2d1f pattern {73211/51111/21/1}
 Group   3 Type S   : 14s9p3d1f contracted to 5s5p2d1f pattern {73211/51111/21/1}
 Group   4 Type O   : 11s6p2d1f contracted to 5s3p2d1f pattern {62111/411/11/1}
 Group   5 Type C   : 11s6p2d1f contracted to 5s3p2d1f pattern {62111/411/11/1}
 Group   6 Type N   : 11s6p2d1f contracted to 5s3p2d1f pattern {62111/411/11/1}
 Group   7 Type H   : 5s1p contracted to 3s1p pattern {311/1}

Atom   0Fe   basis set group =>   1
Atom   1Cl   basis set group =>   2
Atom   2S    basis set group =>   3
Atom   3S    basis set group =>   3
Atom   4O    basis set group =>   4
Atom   5O    basis set group =>   4
Atom   6C    basis set group =>   5
Atom   7C    basis set group =>   5
Atom   8C    basis set group =>   5
Atom   9C    basis set group =>   5
Atom  10C    basis set group =>   5
Atom  11C    basis set group =>   5
Atom  12C    basis set group =>   5
Atom  13N    basis set group =>   6
Atom  14C    basis set group =>   5
Atom  15C    basis set group =>   5
Atom  16C    basis set group =>   5
Atom  17C    basis set group =>   5
Atom  18C    basis set group =>   5
Atom  19C    basis set group =>   5
Atom  20C    basis set group =>   5
Atom  21C    basis set group =>   5
Atom  22N    basis set group =>   6
Atom  23C    basis set group =>   5
Atom  24H    basis set group =>   7
Atom  25H    basis set group =>   7
Atom  26H    basis set group =>   7
Atom  27H    basis set group =>   7
Atom  28H    basis set group =>   7
Atom  29H    basis set group =>   7
Atom  30H    basis set group =>   7
Atom  31H    basis set group =>   7
Atom  32H    basis set group =>   7
Atom  33H    basis set group =>   7
Atom  34H    basis set group =>   7
Atom  35H    basis set group =>   7
Atom  36H    basis set group =>   7
Atom  37H    basis set group =>   7
Atom  38H    basis set group =>   7
Atom  39H    basis set group =>   7
---------------------------------
AUXILIARY/J BASIS SET INFORMATION
---------------------------------
There are 7 groups of distinct atoms

 Group   1 Type Fe  : 19s5p5d3f3g contracted to 8s5p5d2f3g pattern {121111111/11111/11111/21/111}
 Group   2 Type Cl  : 14s5p5d2f1g contracted to 8s4p3d1f1g pattern {71111111/2111/311/2/1}
 Group   3 Type S   : 14s5p5d2f1g contracted to 8s4p3d1f1g pattern {71111111/2111/311/2/1}
 Group   4 Type O   : 12s5p4d2f1g contracted to 6s4p3d1f1g pattern {711111/2111/211/2/1}
 Group   5 Type C   : 12s5p4d2f1g contracted to 6s4p3d1f1g pattern {711111/2111/211/2/1}
 Group   6 Type N   : 12s5p4d2f1g contracted to 6s4p3d1f1g pattern {711111/2111/211/2/1}
 Group   7 Type H   : 5s2p1d contracted to 3s1p1d pattern {311/2/1}

Atom   0Fe   basis set group =>   1
Atom   1Cl   basis set group =>   2
Atom   2S    basis set group =>   3
Atom   3S    basis set group =>   3
Atom   4O    basis set group =>   4
Atom   5O    basis set group =>   4
Atom   6C    basis set group =>   5
Atom   7C    basis set group =>   5
Atom   8C    basis set group =>   5
Atom   9C    basis set group =>   5
Atom  10C    basis set group =>   5
Atom  11C    basis set group =>   5
Atom  12C    basis set group =>   5
Atom  13N    basis set group =>   6
Atom  14C    basis set group =>   5
Atom  15C    basis set group =>   5
Atom  16C    basis set group =>   5
Atom  17C    basis set group =>   5
Atom  18C    basis set group =>   5
Atom  19C    basis set group =>   5
Atom  20C    basis set group =>   5
Atom  21C    basis set group =>   5
Atom  22N    basis set group =>   6
Atom  23C    basis set group =>   5
Atom  24H    basis set group =>   7
Atom  25H    basis set group =>   7
Atom  26H    basis set group =>   7
Atom  27H    basis set group =>   7
Atom  28H    basis set group =>   7
Atom  29H    basis set group =>   7
Atom  30H    basis set group =>   7
Atom  31H    basis set group =>   7
Atom  32H    basis set group =>   7
Atom  33H    basis set group =>   7
Atom  34H    basis set group =>   7
Atom  35H    basis set group =>   7
Atom  36H    basis set group =>   7
Atom  37H    basis set group =>   7
Atom  38H    basis set group =>   7
Atom  39H    basis set group =>   7


           ************************************************************
           *        Program running with 16 parallel MPI-processes    *
           *              working on a common directory               *
           ************************************************************
------------------------------------------------------------------------------
                             ORCA STARTUP CALCULATIONS
                           -- RI-GTO INTEGRALS CHOSEN --
------------------------------------------------------------------------------
------------------------------------------------------------------------------
                   ___                                                        
                  /   \      - P O W E R E D   B Y -                         
                 /     \                                                     
                 |  |  |   _    _      __       _____    __    __             
                 |  |  |  | |  | |    /  \     |  _  \  |  |  /  |          
                  \  \/   | |  | |   /    \    | | | |  |  | /  /          
                 / \  \   | |__| |  /  /\  \   | |_| |  |  |/  /          
                |  |  |   |  __  | /  /__\  \  |    /   |      \           
                |  |  |   | |  | | |   __   |  |    \   |  |\   \          
                \     /   | |  | | |  |  |  |  | |\  \  |  | \   \       
                 \___/    |_|  |_| |__|  |__|  |_| \__\ |__|  \__/        
                                                                              
                      - O R C A' S   B I G   F R I E N D -                    
                                      &                                       
                       - I N T E G R A L  F E E D E R -                       
                                                                              
 v1 FN, 2020, v2 2021, v3 2022-2024                                           
------------------------------------------------------------------------------


----------------------
SHARK INTEGRAL PACKAGE
----------------------

Number of atoms                             ...     40
Number of basis functions                   ...    872
Number of shells                            ...    338
Maximum angular momentum                    ...      3
Integral batch strategy                     ... SHARK/LIBINT Hybrid
RI-J (if used) integral strategy            ... SPLIT-RIJ (Revised 2003 algorithm where possible)
Printlevel                                  ...      1
Contraction scheme used                     ... SEGMENTED contraction
Prescreening option                         ... SCHWARTZ
   Thresh                                   ... 2.500e-11
   Tcut                                     ... 2.500e-12
   Tpresel                                  ... 2.500e-12 
Coulomb Range Separation                    ... NOT USED
Exchange Range Separation                   ... NOT USED
Multipole approximations                    ... NOT USED
Finite Nucleus Model                        ... NOT USED
CABS basis                                  ... NOT available
Auxiliary Coulomb fitting basis             ... AVAILABLE
   # of basis functions in Aux-J            ...   1398
   # of shells in Aux-J                     ...    454
   Maximum angular momentum in Aux-J        ...      4
Auxiliary J/K fitting basis                 ... NOT available
Auxiliary Correlation fitting basis         ... NOT available
Auxiliary 'external' fitting basis          ... NOT available

Checking pre-screening integrals            ... done (  0.0 sec) Dimension = 338
Check shell pair data                       ... done (  0.0 sec)
Shell pair information
Shell pair cut-off parameter TPreSel        ...   2.5e-12
Total number of shell pairs                 ...     57291
Shell pairs after pre-screening             ...     32621
Total number of primitive shell pairs       ...    188846
Primitive shell pairs kept                  ...     69719
          la=0 lb=0:   7729 shell pairs
          la=1 lb=0:   9477 shell pairs
          la=1 lb=1:   2932 shell pairs
          la=2 lb=0:   4714 shell pairs
          la=2 lb=1:   2894 shell pairs
          la=2 lb=2:    737 shell pairs
          la=3 lb=0:   2071 shell pairs
          la=3 lb=1:   1286 shell pairs
          la=3 lb=2:    628 shell pairs
          la=3 lb=3:    153 shell pairs

Calculating one electron integrals          ... done (  0.0 sec)
done (  0.2 sec)
Calculating Nuclear repulsion               ... done (  0.0 sec) ENN=   2978.346423332075 Eh

Diagonalization of the overlap matrix:
Smallest eigenvalue                        ... 6.676e-06
Time for diagonalization                   ...    0.107 sec
Threshold for overlap eigenvalues          ... 1.000e-07
Number of eigenvalues below threshold      ... 0
Time for construction of square roots      ...    0.075 sec
Total time needed                          ...    0.204 sec

-------------------
DFT GRID GENERATION
-------------------

General Integration Accuracy     IntAcc      ... 4.959
Radial Grid Type                 RadialGrid  ... OptM3 with GC (2021)
Angular Grid (max. ang.)         AngularGrid ... 6 (Lebedev-590)
Angular grid pruning method      GridPruning ... 4 (adaptive)
Weight generation scheme         WeightScheme... mBecke (2022)
Basis function cutoff            BFCut       ... 1.0000e-11
Integration weight cutoff        WCut        ... 1.0000e-14
Partially contracted basis set               ... off
Rotationally invariant grid construction     ... off
Angular grids for H and He will be reduced by one unit
Core-polarized basis detected: some atoms will have their core
                               angular grid increased.

Total number of grid points                  ...   496116
Total number of batches                      ...     7774
Average number of points per batch           ...       63
Average number of grid points per atom       ...    12403

--------------------
COSX GRID GENERATION
--------------------

GRIDX 1
-------
General Integration Accuracy     IntAcc      ... 4.020
Radial Grid Type                 RadialGrid  ... OptM3 with GC (2021)
Angular Grid (max. ang.)         AngularGrid ... 2 (Lebedev-110)
Angular grid pruning method      GridPruning ... 4 (adaptive)
Weight generation scheme         WeightScheme... mBecke (2022)
Basis function cutoff            BFCut       ... 1.0000e-11
Integration weight cutoff        WCut        ... 1.0000e-14
Partially contracted basis set               ... on
Rotationally invariant grid construction     ... off
Angular grids for H and He will be reduced by one unit
Core-polarized basis detected: some atoms will have their core
                               angular grid increased.

Total number of grid points                  ...    58602
Total number of batches                      ...      478
Average number of points per batch           ...      122
Average number of grid points per atom       ...     1465
UseSFitting                                  ... on

GRIDX 2
-------
General Integration Accuracy     IntAcc      ... 4.338
Radial Grid Type                 RadialGrid  ... OptM3 with GC (2021)
Angular Grid (max. ang.)         AngularGrid ... 3 (Lebedev-194)
Angular grid pruning method      GridPruning ... 4 (adaptive)
Weight generation scheme         WeightScheme... mBecke (2022)
Basis function cutoff            BFCut       ... 1.0000e-11
Integration weight cutoff        WCut        ... 1.0000e-14
Partially contracted basis set               ... on
Rotationally invariant grid construction     ... off
Angular grids for H and He will be reduced by one unit
Core-polarized basis detected: some atoms will have their core
                               angular grid increased.

Total number of grid points                  ...   123235
Total number of batches                      ...      980
Average number of points per batch           ...      125
Average number of grid points per atom       ...     3081
UseSFitting                                  ... on

GRIDX 3
-------
General Integration Accuracy     IntAcc      ... 4.871
Radial Grid Type                 RadialGrid  ... OptM3 with GC (2021)
Angular Grid (max. ang.)         AngularGrid ... 4 (Lebedev-302)
Angular grid pruning method      GridPruning ... 4 (adaptive)
Weight generation scheme         WeightScheme... mBecke (2022)
Basis function cutoff            BFCut       ... 1.0000e-11
Integration weight cutoff        WCut        ... 1.0000e-14
Partially contracted basis set               ... on
Rotationally invariant grid construction     ... off
Angular grids for H and He will be reduced by one unit
Core-polarized basis detected: some atoms will have their core
                               angular grid increased.

Total number of grid points                  ...   228970
Total number of batches                      ...     1810
Average number of points per batch           ...      126
Average number of grid points per atom       ...     5724
UseSFitting                                  ... on
Initializing property integral containers    ... done (  0.0 sec)

SHARK setup successfully completed in   8.3 seconds

Maximum memory used throughout the entire STARTUP-calculation: 143.0 MB


           ************************************************************
           *        Program running with 16 parallel MPI-processes    *
           *              working on a common directory               *
           ************************************************************
-------------------------------------------------------------------------------
                                 ORCA GUESS
                   Start orbitals & Density for SCF / CASSCF
-------------------------------------------------------------------------------

------------
SCF SETTINGS
------------
Hamiltonian:
 Density Functional     Method          .... DFT(GTOs)
 Exchange Functional    Exchange        .... PBE
   PBE kappa parameter   XKappa         ....  0.804000
   PBE mue parameter    XMuePBE         ....  0.219520
 Correlation Functional Correlation     .... PBE
   PBE beta parameter  CBetaPBE         ....  0.066725
 LDA part of GGA corr.  LDAOpt          .... PW91-LDA
 Gradients option       PostSCFGGA      .... off
 Hybrid DFT is turned on
   Fraction HF Exchange ScalHFX         ....  0.250000
   Scaling of DF-GGA-X  ScalDFX         ....  0.750000
   Scaling of DF-GGA-C  ScalDFC         ....  1.000000
   Scaling of DF-LDA-C  ScalLDAC        ....  1.000000
   Perturbative correction              ....  0.000000
   NL short-range parameter             ....  6.900000
 RI-approximation to the Coulomb term is turned on
   Number of AuxJ basis functions       .... 1398
   RIJ-COSX (HFX calculated with COS-X)).... on


General Settings:
 Integral files         IntName         .... CELVEU-S6
 Hartree-Fock type      HFTyp           .... UHF
 Total Charge           Charge          ....    0
 Multiplicity           Mult            ....    6
 Number of Electrons    NEL             ....  217
 Basis Dimension        Dim             ....  872
 Nuclear Repulsion      ENuc            ....   2978.3464233321 Eh

Convergence Acceleration:
 AO-DIIS                CNVDIIS         .... on
   Start iteration      DIISMaxIt       ....    12
   Startup error        DIISStart       ....  0.200000
   # of expansion vecs  DIISMaxEq       ....     5
   Bias factor          DIISBfac        ....   1.050
   Max. coefficient     DIISMaxC        ....  10.000
 MO-DIIS                CNVKDIIS        .... off
 Trust-Rad. Augm. Hess. CNVTRAH         .... auto
   Auto Start mean grad. ratio tolernc. ....  1.125000
   Auto Start start iteration           ....    50
   Auto Start num. interpolation iter.  ....    10
   Max. Number of Micro iterations      ....    24
   Max. Number of Macro iterations      .... Maxiter - #DIIS iter
   Number of Davidson start vectors     ....     2
   Converg. threshold    (grad. norm)   ....   1.000e-05
   Grad. Scal. Fac. for Micro threshold ....   0.100
   Minimum threshold for Micro iter.    ....   1.000e-02
   NR start threshold (gradient norm)   ....   1.000e-04
   Initial trust radius                 ....   0.400
   Minimum AH scaling param. (alpha)    ....   1.000
   Maximum AH scaling param. (alpha)    .... 1000.000
   Quad. conv. algorithm                .... NR
   White noise on init. David. guess    .... on
   Maximum white noise                  ....   0.010
   Pseudo random numbers                .... off
   Inactive MOs                         .... canonical
   Orbital update algorithm             .... Taylor
   Preconditioner                       .... Diag
   Full preconditioner red. dimension   ....   250
 SOSCF                  CNVSOSCF        .... on
   Start iteration      SOSCFMaxIt      ....   150
   Startup grad/error   SOSCFStart      ....  0.003300
   Hessian update       SOSCFHessUp     .... L-BFGS
 Level Shifting         CNVShift        .... on
   Level shift para.    LevelShift      ....    0.2500
   Turn off err/grad.   ShiftErr        ....    0.0010
 Zerner damping         CNVZerner       .... off
 Static damping         CNVDamp         .... on
   Fraction old density DampFac         ....    0.7000
   Max. Damping (<1)    DampMax         ....    0.9800
   Min. Damping (>=0)   DampMin         ....    0.0000
   Turn off err/grad.   DampErr         ....    0.1000

SCF Procedure:
 Maximum # iterations   MaxIter         ....   125
 SCF integral mode      SCFMode         .... Direct
   Integral package                     .... SHARK and LIBINT hybrid scheme
 Reset frequency        DirectResetFreq ....    20
 Integral Threshold     Thresh          ....  2.500e-11 Eh
 Primitive CutOff       TCut            ....  2.500e-12 Eh

Convergence Tolerance:
 Convergence Check Mode ConvCheckMode   .... Total+1el-Energy
 Convergence forced     ConvForced      .... 0
 Energy Change          TolE            ....  1.000e-08 Eh
 1-El. energy change                    ....  1.000e-05 Eh
 Orbital Gradient       TolG            ....  1.000e-05
 Orbital Rotation angle TolX            ....  1.000e-05
 DIIS Error             TolErr          ....  5.000e-07

------------------------------
INITIAL GUESS: MODEL POTENTIAL
------------------------------
Loading Hartree-Fock densities                     ... done
Calculating cut-offs                               ... done
Initializing the effective Hamiltonian             ... done
Setting up the integral package (SHARK)            ... done
done (   0.2 sec)
Making the grid                                    ... done (   0.3 sec)
Mapping shells                                     ... done
Starting the XC term evaluation                    ... done (   0.1 sec)
  promolecular density results
     # of electrons  =    216.994531820
     EX              =   -247.833979776
     EC              =     -7.905135086
     EX+EC           =   -255.739114862
Transforming the Hamiltonian                       ... done (   0.1 sec)
done (   0.1 sec)
Back transforming the eigenvectors                 ... done (   0.1 sec)
done
                      ------------------
                      INITIAL GUESS DONE (   1.1 sec)
                      ------------------
             **** ENERGY FILE WAS UPDATED (CELVEU-S6.en.tmp) ****
Finished Guess after   1.5 sec
Maximum memory used throughout the entire GUESS-calculation: 64.6 MB


           ************************************************************
           *        Program running with 16 parallel MPI-processes    *
           *              working on a common directory               *
           ************************************************************

-------------------------------------------------------------------------------------------
                                      ORCA LEAN-SCF
                              memory conserving SCF solver
-------------------------------------------------------------------------------------------

----------------------------------------D-I-I-S--------------------------------------------
Iteration    Energy (Eh)           Delta-E    RMSDP     MaxDP     DIISErr   Damp  Time(sec)
-------------------------------------------------------------------------------------------
               ***  Starting incremental Fock matrix formation  ***
    1    -3397.2640010462318969     0.00e+00  4.36e-04  2.73e-02  1.40e-01  0.700  15.0
    2    -3397.5382035329866994    -2.74e-01  3.18e-04  1.56e-02  5.03e-02  0.700   9.4
                               ***Turning on AO-DIIS***
    3    -3397.6673823770033778    -1.29e-01  1.96e-04  1.40e-02  3.00e-02  0.700   8.1
    4    -3397.7533217193131350    -8.59e-02  4.57e-04  2.57e-02  2.61e-02  0.000   7.9
    5    -3397.9448196388857468    -1.91e-01  1.27e-04  1.70e-02  1.86e-02  0.000   8.1
    6    -3397.9492762729832975    -4.46e-03  8.18e-05  1.31e-02  1.11e-02  0.000   7.0
    7    -3397.9502639501697558    -9.88e-04  3.37e-05  2.65e-03  7.22e-03  0.000   6.7
    8    -3397.9511075484024332    -8.44e-04  2.84e-05  4.00e-03  3.68e-03  0.000   7.2
                              *** Initializing SOSCF ***
---------------------------------------S-O-S-C-F--------------------------------------
Iteration    Energy (Eh)           Delta-E    RMSDP     MaxDP     MaxGrad    Time(sec)
--------------------------------------------------------------------------------------
    9    -3397.9514151232369841    -3.08e-04  1.59e-05  2.07e-03  1.12e-03     7.0
               *** Restarting incremental Fock matrix formation ***
   10    -3397.9515339867075454    -1.19e-04  2.88e-05  2.61e-03  2.12e-03    14.4
   11    -3397.9516338539478966    -9.99e-05  4.69e-05  5.12e-03  6.98e-04    10.4
   12    -3397.9515117959363124     1.22e-04  2.97e-05  3.17e-03  1.91e-03    11.1
   13    -3397.9516734677117711    -1.62e-04  8.37e-06  5.98e-04  2.01e-04    10.5
   14    -3397.9516685723010596     4.90e-06  4.82e-06  2.89e-04  3.16e-04     9.9
   15    -3397.9516785701889603    -1.00e-05  2.33e-06  2.03e-04  5.54e-05     8.6
   16    -3397.9516783583230790     2.12e-07  1.40e-06  1.03e-04  8.39e-05     7.5
   17    -3397.9516789566450825    -5.98e-07  1.29e-06  7.98e-05  1.47e-05     8.7
   18    -3397.9516789070812592     4.96e-08  7.83e-07  8.21e-05  2.39e-05     8.0
   19    -3397.9516789501785752    -4.31e-08  1.30e-06  1.35e-04  5.36e-06     6.3
   20    -3397.9516789892513771    -3.91e-08  1.01e-06  9.09e-05  7.18e-06     6.0
   21    -3397.9516790131601738    -2.39e-08  1.33e-06  1.07e-04  1.51e-06     5.7
                  *** Gradient check signals convergence ***

               *****************************************************
               *                     SUCCESS                       *
               *           SCF CONVERGED AFTER  21 CYCLES          *
               *****************************************************

 done (   18.279 sec)
Old exchange energy                            :    -62.864155047 Eh
New exchange energy                            :    -62.864154396 Eh
Exchange energy change after final integration :      0.000000651 Eh
Total energy after final integration           :  -3397.951678362 Eh
             **** ENERGY FILE WAS UPDATED (CELVEU-S6.en.tmp) ****

----------------
TOTAL SCF ENERGY
----------------

Total Energy       :      -3397.95167836215478 Eh          -92462.96589 eV

Components:
Nuclear Repulsion  :       2978.34642333207466 Eh           81044.92642 eV
Electronic Energy  :      -6376.29810234523484 Eh         -173507.89234 eV
One Electron Energy:     -10606.67123138354327 Eh         -288622.19747 eV
Two Electron Energy:       4230.37312903830843 Eh          115114.30514 eV

Virial components:
Potential Energy   :      -6793.63151871282025 Eh         -184864.11193 eV
Kinetic Energy     :       3395.67984035066547 Eh           92401.14604 eV
Virial Ratio       :          2.00066903775335

DFT components:
N(Alpha)           :      111.000007434682 electrons
N(Beta)            :      106.000007118498 electrons
N(Total)           :      217.000014553180 electrons
E(X)               :     -188.008876836565 Eh       
E(C)               :       -7.878193341606 Eh       
E(XC)              :     -195.887070178172 Eh       

---------------
SCF CONVERGENCE
---------------

  Last Energy change         ...    2.3909e-08  Tolerance :   1.0000e-08
  Last MAX-Density change    ...    1.0703e-04  Tolerance :   1.0000e-07
  Last RMS-Density change    ...    1.3295e-06  Tolerance :   5.0000e-09
  Last DIIS Error            ...    1.1182e-03  Tolerance :   5.0000e-07
  Last Orbital Gradient      ...    1.5133e-06  Tolerance :   1.0000e-05
  Last Orbital Rotation      ...    9.4783e-06  Tolerance :   1.0000e-05


----------------------
UHF SPIN CONTAMINATION
----------------------

Warning: in a DFT calculation there is little theoretical justification to 
         calculate <S**2> as in Hartree-Fock theory. We will do it anyways
         but you should keep in mind that the values have only limited relevance

Expectation value of <S**2>     :     8.766117
Ideal value S*(S+1) for S=2.5   :     8.750000
Deviation                       :     0.016117

----------------
ORBITAL ENERGIES
----------------
                 SPIN UP ORBITALS
  NO   OCC          E(Eh)            E(eV) 
   0   1.0000    -256.448666     -6978.3230 
   1   1.0000    -101.627017     -2765.4117 
   2   1.0000     -89.002517     -2421.8816 
   3   1.0000     -89.002102     -2421.8703 
   4   1.0000     -30.270406      -823.6996 
   5   1.0000     -26.090421      -709.9565 
   6   1.0000     -26.087442      -709.8754 
   7   1.0000     -26.086762      -709.8569 
   8   1.0000     -19.223296      -523.0925 
   9   1.0000     -19.222765      -523.0780 
  10   1.0000     -14.512311      -394.9001 
  11   1.0000     -14.510702      -394.8563 
  12   1.0000     -10.319387      -280.8048 
  13   1.0000     -10.319145      -280.7982 
  14   1.0000     -10.256455      -279.0923 
  15   1.0000     -10.255983      -279.0795 
  16   1.0000     -10.233765      -278.4749 
  17   1.0000     -10.231393      -278.4104 
  18   1.0000     -10.228246      -278.3247 
  19   1.0000     -10.225891      -278.2606 
  20   1.0000     -10.225210      -278.2421 
  21   1.0000     -10.224357      -278.2189 
  22   1.0000     -10.223291      -278.1899 
  23   1.0000     -10.221549      -278.1425 
  24   1.0000     -10.220561      -278.1156 
  25   1.0000     -10.216945      -278.0172 
  26   1.0000     -10.215102      -277.9671 
  27   1.0000     -10.211754      -277.8759 
  28   1.0000      -9.453512      -257.2431 
  29   1.0000      -7.982641      -217.2187 
  30   1.0000      -7.982449      -217.2135 
  31   1.0000      -7.184567      -195.5020 
  32   1.0000      -7.182023      -195.4328 
  33   1.0000      -7.181221      -195.4110 
  34   1.0000      -5.918464      -161.0496 
  35   1.0000      -5.918223      -161.0430 
  36   1.0000      -5.914361      -160.9379 
  37   1.0000      -5.914097      -160.9308 
  38   1.0000      -5.913946      -160.9267 
  39   1.0000      -5.913851      -160.9241 
  40   1.0000      -3.694508      -100.5327 
  41   1.0000      -2.461184       -66.9722 
  42   1.0000      -2.453332       -66.7586 
  43   1.0000      -2.451995       -66.7222 
  44   1.0000      -1.132064       -30.8050 
  45   1.0000      -1.129583       -30.7375 
  46   1.0000      -0.934424       -25.4270 
  47   1.0000      -0.933367       -25.3982 
  48   1.0000      -0.902952       -24.5706 
  49   1.0000      -0.901120       -24.5207 
  50   1.0000      -0.842599       -22.9283 
  51   1.0000      -0.840729       -22.8774 
  52   1.0000      -0.809392       -22.0247 
  53   1.0000      -0.803073       -21.8527 
  54   1.0000      -0.802682       -21.8421 
  55   1.0000      -0.796178       -21.6651 
  56   1.0000      -0.765551       -20.8317 
  57   1.0000      -0.739216       -20.1151 
  58   1.0000      -0.734819       -19.9955 
  59   1.0000      -0.682217       -18.5641 
  60   1.0000      -0.673655       -18.3311 
  61   1.0000      -0.668934       -18.2026 
  62   1.0000      -0.665712       -18.1150 
  63   1.0000      -0.617467       -16.8021 
  64   1.0000      -0.615201       -16.7405 
  65   1.0000      -0.598708       -16.2917 
  66   1.0000      -0.589881       -16.0515 
  67   1.0000      -0.562072       -15.2947 
  68   1.0000      -0.547486       -14.8979 
  69   1.0000      -0.542906       -14.7732 
  70   1.0000      -0.534455       -14.5433 
  71   1.0000      -0.530837       -14.4448 
  72   1.0000      -0.520329       -14.1589 
  73   1.0000      -0.499337       -13.5877 
  74   1.0000      -0.497896       -13.5484 
  75   1.0000      -0.488998       -13.3063 
  76   1.0000      -0.485649       -13.2152 
  77   1.0000      -0.478404       -13.0180 
  78   1.0000      -0.475803       -12.9473 
  79   1.0000      -0.471634       -12.8338 
  80   1.0000      -0.469682       -12.7807 
  81   1.0000      -0.466416       -12.6918 
  82   1.0000      -0.458329       -12.4718 
  83   1.0000      -0.455302       -12.3894 
  84   1.0000      -0.454155       -12.3582 
  85   1.0000      -0.440568       -11.9885 
  86   1.0000      -0.428668       -11.6647 
  87   1.0000      -0.426050       -11.5934 
  88   1.0000      -0.418255       -11.3813 
  89   1.0000      -0.411439       -11.1958 
  90   1.0000      -0.405922       -11.0457 
  91   1.0000      -0.404288       -11.0012 
  92   1.0000      -0.391251       -10.6465 
  93   1.0000      -0.384182       -10.4541 
  94   1.0000      -0.380649       -10.3580 
  95   1.0000      -0.370306       -10.0765 
  96   1.0000      -0.350953        -9.5499 
  97   1.0000      -0.333726        -9.0811 
  98   1.0000      -0.320350        -8.7172 
  99   1.0000      -0.318591        -8.6693 
 100   1.0000      -0.297644        -8.0993 
 101   1.0000      -0.292477        -7.9587 
 102   1.0000      -0.285798        -7.7770 
 103   1.0000      -0.284486        -7.7413 
 104   1.0000      -0.282948        -7.6994 
 105   1.0000      -0.281474        -7.6593 
 106   1.0000      -0.272443        -7.4135 
 107   1.0000      -0.255999        -6.9661 
 108   1.0000      -0.235808        -6.4167 
 109   1.0000      -0.230214        -6.2644 
 110   1.0000      -0.229251        -6.2382 
 111   0.0000      -0.052724        -1.4347 
 112   0.0000      -0.048376        -1.3164 
 113   0.0000      -0.023741        -0.6460 
 114   0.0000      -0.022773        -0.6197 
 115   0.0000      -0.000471        -0.0128 
 116   0.0000       0.002442         0.0664 
 117   0.0000       0.043131         1.1737 
 118   0.0000       0.055526         1.5109 
 119   0.0000       0.064948         1.7673 
 120   0.0000       0.075614         2.0576 
 121   0.0000       0.079300         2.1579 

                 SPIN DOWN ORBITALS
  NO   OCC          E(Eh)            E(eV) 
   0   1.0000    -256.447118     -6978.2809 
   1   1.0000    -101.624908     -2765.3543 
   2   1.0000     -89.001208     -2421.8460 
   3   1.0000     -89.000757     -2421.8337 
   4   1.0000     -30.176797      -821.1524 
   5   1.0000     -26.010599      -707.7844 
   6   1.0000     -26.009384      -707.7513 
   7   1.0000     -26.008320      -707.7224 
   8   1.0000     -19.217900      -522.9456 
   9   1.0000     -19.217450      -522.9334 
  10   1.0000     -14.511869      -394.8880 
  11   1.0000     -14.510257      -394.8442 
  12   1.0000     -10.319635      -280.8116 
  13   1.0000     -10.319381      -280.8046 
  14   1.0000     -10.256379      -279.0903 
  15   1.0000     -10.255896      -279.0771 
  16   1.0000     -10.233715      -278.4736 
  17   1.0000     -10.231347      -278.4091 
  18   1.0000     -10.228254      -278.3249 
  19   1.0000     -10.225858      -278.2597 
  20   1.0000     -10.225179      -278.2413 
  21   1.0000     -10.224324      -278.2180 
  22   1.0000     -10.223276      -278.1895 
  23   1.0000     -10.221545      -278.1424 
  24   1.0000     -10.220565      -278.1157 
  25   1.0000     -10.216934      -278.0169 
  26   1.0000     -10.215095      -277.9669 
  27   1.0000     -10.211743      -277.8757 
  28   1.0000      -9.451605      -257.1913 
  29   1.0000      -7.981381      -217.1844 
  30   1.0000      -7.981155      -217.1783 
  31   1.0000      -7.181018      -195.4054 
  32   1.0000      -7.178983      -195.3501 
  33   1.0000      -7.178888      -195.3475 
  34   1.0000      -5.917437      -161.0217 
  35   1.0000      -5.917152      -161.0139 
  36   1.0000      -5.912533      -160.8882 
  37   1.0000      -5.912324      -160.8825 
  38   1.0000      -5.911138      -160.8503 
  39   1.0000      -5.910881      -160.8433 
  40   1.0000      -3.471340       -94.4600 
  41   1.0000      -2.217341       -60.3369 
  42   1.0000      -2.216294       -60.3084 
  43   1.0000      -2.213529       -60.2332 
  44   1.0000      -1.125888       -30.6370 
  45   1.0000      -1.123548       -30.5733 
  46   1.0000      -0.931210       -25.3395 
  47   1.0000      -0.929887       -25.3035 
  48   1.0000      -0.900340       -24.4995 
  49   1.0000      -0.898756       -24.4564 
  50   1.0000      -0.841146       -22.8887 
  51   1.0000      -0.839350       -22.8399 
  52   1.0000      -0.809338       -22.0232 
  53   1.0000      -0.802996       -21.8506 
  54   1.0000      -0.801991       -21.8233 
  55   1.0000      -0.795498       -21.6466 
  56   1.0000      -0.752013       -20.4633 
  57   1.0000      -0.733915       -19.9708 
  58   1.0000      -0.729943       -19.8628 
  59   1.0000      -0.681635       -18.5482 
  60   1.0000      -0.672705       -18.3052 
  61   1.0000      -0.668565       -18.1926 
  62   1.0000      -0.664276       -18.0759 
  63   1.0000      -0.612561       -16.6686 
  64   1.0000      -0.608318       -16.5532 
  65   1.0000      -0.594770       -16.1845 
  66   1.0000      -0.588258       -16.0073 
  67   1.0000      -0.561077       -15.2677 
  68   1.0000      -0.544584       -14.8189 
  69   1.0000      -0.537487       -14.6258 
  70   1.0000      -0.532051       -14.4778 
  71   1.0000      -0.527160       -14.3448 
  72   1.0000      -0.516754       -14.0616 
  73   1.0000      -0.496715       -13.5163 
  74   1.0000      -0.495471       -13.4825 
  75   1.0000      -0.487856       -13.2752 
  76   1.0000      -0.484666       -13.1884 
  77   1.0000      -0.475720       -12.9450 
  78   1.0000      -0.471717       -12.8361 
  79   1.0000      -0.469360       -12.7719 
  80   1.0000      -0.463474       -12.6118 
  81   1.0000      -0.431841       -11.7510 
  82   1.0000      -0.427945       -11.6450 
  83   1.0000      -0.422200       -11.4887 
  84   1.0000      -0.417750       -11.3676 
  85   1.0000      -0.406500       -11.0614 
  86   1.0000      -0.403856       -10.9895 
  87   1.0000      -0.391925       -10.6648 
  88   1.0000      -0.384356       -10.4588 
  89   1.0000      -0.379657       -10.3310 
  90   1.0000      -0.377370       -10.2688 
  91   1.0000      -0.347220        -9.4483 
  92   1.0000      -0.329518        -8.9666 
  93   1.0000      -0.327979        -8.9248 
  94   1.0000      -0.323344        -8.7986 
  95   1.0000      -0.317193        -8.6313 
  96   1.0000      -0.294264        -8.0073 
  97   1.0000      -0.292616        -7.9625 
  98   1.0000      -0.285804        -7.7771 
  99   1.0000      -0.284099        -7.7307 
 100   1.0000      -0.283939        -7.7264 
 101   1.0000      -0.276691        -7.5291 
 102   1.0000      -0.272442        -7.4135 
 103   1.0000      -0.258353        -7.0301 
 104   1.0000      -0.251546        -6.8449 
 105   1.0000      -0.224201        -6.1008 
 106   0.0000      -0.090360        -2.4588 
 107   0.0000      -0.088103        -2.3974 
 108   0.0000      -0.072955        -1.9852 
 109   0.0000      -0.069512        -1.8915 
 110   0.0000      -0.053972        -1.4687 
 111   0.0000      -0.044650        -1.2150 
 112   0.0000      -0.034795        -0.9468 
 113   0.0000      -0.022951        -0.6245 
 114   0.0000      -0.021264        -0.5786 
 115   0.0000       0.002339         0.0636 
 116   0.0000       0.004840         0.1317 
*Only the first 10 virtual orbitals were printed.

                    ********************************
                    * MULLIKEN POPULATION ANALYSIS *
                    ********************************

--------------------------------------------
MULLIKEN ATOMIC CHARGES AND SPIN POPULATIONS
--------------------------------------------
   0 Fe:    0.584420    4.105425
   1 Cl:   -0.423262    0.247955
   2 S :   -0.245994    0.187055
   3 S :   -0.241997    0.190556
   4 O :   -0.423749    0.128922
   5 O :   -0.427225    0.126646
   6 C :    0.153917   -0.027225
   7 C :    0.167468    0.005833
   8 C :   -0.212128    0.000279
   9 C :   -0.098875   -0.000092
  10 C :   -0.114781    0.000831
  11 C :   -0.111584    0.000378
  12 C :   -0.244130    0.001428
  13 N :    0.178189    0.018333
  14 C :   -0.285640    0.000637
  15 C :    0.151998   -0.024710
  16 C :    0.144471    0.004604
  17 C :   -0.197246    0.001591
  18 C :   -0.116381   -0.001112
  19 C :   -0.093869    0.002315
  20 C :   -0.114518   -0.000279
  21 C :   -0.218280    0.002242
  22 N :    0.180113    0.018448
  23 C :   -0.281238    0.000725
  24 H :    0.139452    0.001676
  25 H :    0.125100   -0.000037
  26 H :    0.141167   -0.000020
  27 H :    0.134608    0.000012
  28 H :    0.146225    0.000071
  29 H :    0.150290    0.000195
  30 H :    0.161969    0.000818
  31 H :    0.159944    0.002015
  32 H :    0.142283    0.001662
  33 H :    0.122878   -0.000007
  34 H :    0.122804   -0.000113
  35 H :    0.127370    0.000010
  36 H :    0.148991    0.000077
  37 H :    0.144402    0.000558
  38 H :    0.161068    0.000501
  39 H :    0.161771    0.001796
Sum of atomic charges         :   -0.0000000
Sum of atomic spin populations:    5.0000000

[...]
 71:   1109.08   0.001508    7.62  0.000424  ( 0.007614 -0.007326  0.017681)
 72:   1138.62   0.003792   19.17  0.001039  ( 0.013083 -0.018499 -0.022936)
 73:   1138.76   0.002162   10.92  0.000592  ( 0.010075 -0.012366 -0.018383)
 74:   1141.88   0.003648   18.43  0.000997  (-0.011649  0.017457  0.023588)
 75:   1141.92   0.000063    0.32  0.000017  (-0.000760  0.004055  0.000504)
 76:   1181.96   0.000029    0.15  0.000008  ( 0.002569  0.000575 -0.000806)
 77:   1182.08   0.000027    0.13  0.000007  (-0.002191  0.001357 -0.000635)
 78:   1203.06   0.002243   11.33  0.000582  (-0.020770  0.008600  0.008739)
 79:   1203.33   0.000080    0.40  0.000021  (-0.000946 -0.003447  0.002822)
 80:   1268.72   0.002483   12.55  0.000611  (-0.005887  0.019996 -0.013276)
 81:   1272.24   0.041337  208.90  0.010139  (-0.100125  0.010407  0.002425)
 82:   1312.94   0.000372    1.88  0.000088  ( 0.002294  0.003911 -0.008236)
 83:   1313.68   0.016892   85.37  0.004013  (-0.020896  0.036117  0.047662)
 84:   1341.17   0.000081    0.41  0.000019  (-0.000538 -0.004290  0.000368)
 85:   1341.65   0.003499   17.68  0.000814  (-0.003499 -0.015639 -0.023602)
 86:   1365.64   0.000629    3.18  0.000144  ( 0.009366  0.000231 -0.007487)
 87:   1365.68   0.000601    3.04  0.000137  ( 0.008015 -0.008470 -0.001207)
 88:   1434.67   0.002135   10.79  0.000464  ( 0.013800 -0.009962 -0.013221)
 89:   1434.97   0.000380    1.92  0.000083  ( 0.000182 -0.008123  0.004081)
 90:   1466.02   0.001630    8.24  0.000347  (-0.002788  0.013653 -0.012359)
 91:   1466.19   0.001632    8.25  0.000347  (-0.005905 -0.015826  0.007880)
 92:   1480.47   0.002635   13.31  0.000555  (-0.019305  0.010635  0.008340)
 93:   1480.57   0.000936    4.73  0.000197  (-0.004485 -0.009586  0.009231)
 94:   1486.56   0.000832    4.20  0.000175  (-0.000738 -0.008793  0.009837)
 95:   1486.56   0.002768   13.99  0.000581  ( 0.002784  0.014787  0.018832)
 96:   1533.84   0.001446    7.31  0.000294  ( 0.016985 -0.000028  0.002391)
 97:   1533.87   0.000057    0.29  0.000012  ( 0.000290 -0.002720  0.002040)
 98:   1619.11   0.023696  119.75  0.004567  (-0.004175  0.039378  0.054764)
 99:   1621.37   0.000505    2.55  0.000097  ( 0.001071 -0.000647 -0.009776)
100:   1643.75   0.001092    5.52  0.000207  (-0.006335  0.006387  0.011242)
101:   1643.82   0.000359    1.82  0.000068  ( 0.000814 -0.008038  0.001718)
102:   1667.19   0.000185    0.93  0.000035  (-0.004823  0.002198  0.002549)
103:   1667.27   0.000009    0.05  0.000002  ( 0.000580 -0.001173  0.000219)
104:   3071.32   0.004805   24.28  0.000488  ( 0.006853  0.012080  0.017184)
105:   3071.95   0.004375   22.11  0.000444  (-0.006381 -0.010420 -0.017179)
106:   3143.34   0.000695    3.51  0.000069  (-0.000979 -0.007170  0.004077)
107:   3144.33   0.000716    3.62  0.000071  (-0.000492 -0.006451  0.005406)
108:   3187.26   0.000297    1.50  0.000029  (-0.004829  0.000966  0.002203)
109:   3187.66   0.000345    1.75  0.000034  (-0.005112  0.002443  0.001309)
110:   3194.71   0.000230    1.16  0.000022  ( 0.002979  0.000110 -0.003682)
111:   3194.73   0.000166    0.84  0.000016  (-0.001188  0.003837  0.000341)
112:   3198.29   0.000487    2.46  0.000047  (-0.005175  0.004161  0.001840)
113:   3199.15   0.000535    2.70  0.000052  (-0.005801  0.001154  0.004147)
114:   3203.27   0.001559    7.88  0.000152  (-0.010294  0.005488 -0.003971)
115:   3203.50   0.001518    7.67  0.000148  (-0.011034 -0.004428  0.002562)
116:   3211.23   0.001797    9.08  0.000175  (-0.004206 -0.003132  0.012128)
117:   3211.66   0.001671    8.45  0.000162  (-0.001994  0.012578  0.000472)
118:   3218.12   0.001997   10.09  0.000194  ( 0.012389 -0.003926 -0.004977)
119:   3218.25   0.001611    8.14  0.000156  ( 0.010677 -0.005525 -0.003421)

* The epsilon (eps) is given for a Dirac delta lineshape.
** The dipole moment derivative (T) already includes vibrational overlap.

The first frequency considered to be a vibration is 6
The total number of vibrations considered is 114


--------------------------
THERMOCHEMISTRY AT 298.15K
--------------------------

Temperature         ...   298.15 K
Pressure            ...     1.00 atm
Total Mass          ...   423.74 AMU
Quasi RRHO          ...     True
Cut-Off Frequency   ...     1.00 cm^-1

Throughout the following assumptions are being made:
  (1) The electronic state is orbitally nondegenerate
      but the spin degeneracy is treated
  (2) There are no thermally accessible electronically excited states
  (3) Hindered rotations indicated by low frequency modes are not
      treated as such but are treated as vibrations and this may
      cause some error
  (4) All equations used are the standard statistical mechanics
      equations for an ideal gas
  (5) All vibrations are strictly harmonic

freq.      12.56  E(vib)   ...       0.57 
freq.      12.72  E(vib)   ...       0.57 
freq.      24.88  E(vib)   ...       0.56 
freq.      29.93  E(vib)   ...       0.55 
freq.      46.87  E(vib)   ...       0.53 
freq.      49.68  E(vib)   ...       0.52 
freq.      71.86  E(vib)   ...       0.50 
freq.      75.06  E(vib)   ...       0.49 
freq.      81.09  E(vib)   ...       0.48 
freq.      92.40  E(vib)   ...       0.47 
freq.     113.13  E(vib)   ...       0.45 
freq.     129.86  E(vib)   ...       0.43 
freq.     152.48  E(vib)   ...       0.40 
freq.     153.25  E(vib)   ...       0.40 
freq.     157.61  E(vib)   ...       0.40 
freq.     181.40  E(vib)   ...       0.37 
freq.     201.69  E(vib)   ...       0.35 
freq.     202.70  E(vib)   ...       0.35 
freq.     229.05  E(vib)   ...       0.32 
freq.     236.16  E(vib)   ...       0.32 
freq.     284.62  E(vib)   ...       0.28 
freq.     288.30  E(vib)   ...       0.27 
freq.     310.92  E(vib)   ...       0.26 
freq.     322.99  E(vib)   ...       0.25 
freq.     350.35  E(vib)   ...       0.23 
freq.     379.66  E(vib)   ...       0.21 
freq.     397.93  E(vib)   ...       0.20 
freq.     405.64  E(vib)   ...       0.19 
freq.     411.14  E(vib)   ...       0.19 
freq.     412.00  E(vib)   ...       0.19 
freq.     413.69  E(vib)   ...       0.19 
freq.     418.86  E(vib)   ...       0.18 
freq.     479.95  E(vib)   ...       0.15 
freq.     491.98  E(vib)   ...       0.14 
freq.     530.28  E(vib)   ...       0.13 
freq.     531.86  E(vib)   ...       0.13 
freq.     619.48  E(vib)   ...       0.09 
freq.     619.76  E(vib)   ...       0.09 
freq.     626.33  E(vib)   ...       0.09 
freq.     628.26  E(vib)   ...       0.09 
freq.     651.85  E(vib)   ...       0.08 
freq.     652.31  E(vib)   ...       0.08 
freq.     702.50  E(vib)   ...       0.07 
freq.     704.43  E(vib)   ...       0.07 
freq.     715.49  E(vib)   ...       0.07 
freq.     715.66  E(vib)   ...       0.07 
freq.     781.84  E(vib)   ...       0.05 
freq.     782.17  E(vib)   ...       0.05 
freq.     865.29  E(vib)   ...       0.04 
freq.     865.41  E(vib)   ...       0.04 
freq.     942.84  E(vib)   ...       0.03 
freq.     943.32  E(vib)   ...       0.03 
freq.     982.43  E(vib)   ...       0.02 
freq.     982.49  E(vib)   ...       0.02 
freq.     986.44  E(vib)   ...       0.02 
freq.     989.07  E(vib)   ...       0.02 
freq.     998.84  E(vib)   ...       0.02 
freq.     998.93  E(vib)   ...       0.02 
freq.    1010.89  E(vib)   ...       0.02 
freq.    1011.12  E(vib)   ...       0.02 
freq.    1025.16  E(vib)   ...       0.02 
freq.    1025.18  E(vib)   ...       0.02 
freq.    1065.40  E(vib)   ...       0.02 
freq.    1065.41  E(vib)   ...       0.02 
freq.    1108.98  E(vib)   ...       0.02 
freq.    1109.08  E(vib)   ...       0.02 
freq.    1138.62  E(vib)   ...       0.01 
freq.    1138.76  E(vib)   ...       0.01 
freq.    1141.88  E(vib)   ...       0.01 
freq.    1141.92  E(vib)   ...       0.01 
freq.    1181.96  E(vib)   ...       0.01 
freq.    1182.08  E(vib)   ...       0.01 
freq.    1203.06  E(vib)   ...       0.01 
freq.    1203.33  E(vib)   ...       0.01 
freq.    1268.72  E(vib)   ...       0.01 
freq.    1272.24  E(vib)   ...       0.01 
freq.    1312.94  E(vib)   ...       0.01 
freq.    1313.68  E(vib)   ...       0.01 
freq.    1341.17  E(vib)   ...       0.01 
freq.    1341.65  E(vib)   ...       0.01 
freq.    1365.64  E(vib)   ...       0.01 
freq.    1365.68  E(vib)   ...       0.01 
freq.    1434.67  E(vib)   ...       0.00 
freq.    1434.97  E(vib)   ...       0.00 
freq.    1466.02  E(vib)   ...       0.00 
freq.    1466.19  E(vib)   ...       0.00 
freq.    1480.47  E(vib)   ...       0.00 
freq.    1480.57  E(vib)   ...       0.00 
freq.    1486.56  E(vib)   ...       0.00 
freq.    1486.56  E(vib)   ...       0.00 
freq.    1533.84  E(vib)   ...       0.00 
freq.    1533.87  E(vib)   ...       0.00 
freq.    1619.11  E(vib)   ...       0.00 
freq.    1621.37  E(vib)   ...       0.00 
freq.    1643.75  E(vib)   ...       0.00 
freq.    1643.82  E(vib)   ...       0.00 
freq.    1667.19  E(vib)   ...       0.00 
freq.    1667.27  E(vib)   ...       0.00 
freq.    3071.32  E(vib)   ...       0.00 
freq.    3071.95  E(vib)   ...       0.00 
freq.    3143.34  E(vib)   ...       0.00 
freq.    3144.33  E(vib)   ...       0.00 
freq.    3187.26  E(vib)   ...       0.00 
freq.    3187.66  E(vib)   ...       0.00 
freq.    3194.71  E(vib)   ...       0.00 
freq.    3194.73  E(vib)   ...       0.00 
freq.    3198.29  E(vib)   ...       0.00 
freq.    3199.15  E(vib)   ...       0.00 
freq.    3203.27  E(vib)   ...       0.00 
freq.    3203.50  E(vib)   ...       0.00 
freq.    3211.23  E(vib)   ...       0.00 
freq.    3211.66  E(vib)   ...       0.00 
freq.    3218.12  E(vib)   ...       0.00 
freq.    3218.25  E(vib)   ...       0.00 

------------
INNER ENERGY
------------

The inner energy is: U= E(el) + E(ZPE) + E(vib) + E(rot) + E(trans)
    E(el)   - is the total energy from the electronic structure calculation
              = E(kin-el) + E(nuc-el) + E(el-el) + E(nuc-nuc)
    E(ZPE)  - the the zero temperature vibrational energy from the frequency calculation
    E(vib)  - the the finite temperature correction to E(ZPE) due to population
              of excited vibrational states
    E(rot)  - is the rotational thermal energy
    E(trans)- is the translational thermal energy

Summary of contributions to the inner energy U:
Electronic energy                ...  -3398.34579813 Eh
Zero point energy                ...      0.29684355 Eh     186.27 kcal/mol
Thermal vibrational correction   ...      0.02188511 Eh      13.73 kcal/mol
Thermal rotational correction    ...      0.00141627 Eh       0.89 kcal/mol
Thermal translational correction ...      0.00141627 Eh       0.89 kcal/mol
-----------------------------------------------------------------------
Total thermal energy                  -3398.02423694 Eh


Summary of corrections to the electronic energy:
(perhaps to be used in another calculation)
Total thermal correction                  0.02471765 Eh      15.51 kcal/mol
Non-thermal (ZPE) correction              0.29684355 Eh     186.27 kcal/mol
-----------------------------------------------------------------------
Total correction                          0.32156120 Eh     201.78 kcal/mol


--------
ENTHALPY
--------

The enthalpy is H = U + kB*T
                kB is Boltzmann's constant
Total thermal energy              ...  -3398.02423694 Eh 
Thermal Enthalpy correction       ...      0.00094421 Eh       0.59 kcal/mol
-----------------------------------------------------------------------
Total Enthalpy                    ...  -3398.02329273 Eh


Note: Only C1 symmetry has been detected, increase convergence thresholds 
      if your molecule has a higher symmetry. Symmetry factor of 1.0 is   
      used for the rotational entropy correction. 
 

Note: Rotational entropy computed according to Herzberg 
Infrared and Raman Spectra, Chapter V,1, Van Nostrand Reinhold, 1945 
Point Group:  C1, Symmetry Number:   1  
Rotational constants in cm-1:     0.015079     0.002554     0.002512 

Vibrational entropy computed according to the QRRHO of S. Grimme
Chem.Eur.J. 2012 18 9955 using a reference frequency of 100.0 cm-1


-------
ENTROPY
-------

The entropy contributions are T*S = T*(S(el)+S(vib)+S(rot)+S(trans))
     S(el)   - electronic entropy
     S(vib)  - vibrational entropy
     S(rot)  - rotational entropy
     S(trans)- translational entropy
The entropies will be listed as multiplied by the temperature to get
units of energy

Electronic entropy                ...      0.00169175 Eh      1.06 kcal/mol
Vibrational entropy               ...      0.04044384 Eh     25.38 kcal/mol
Rotational entropy                ...      0.01713574 Eh     10.75 kcal/mol
Translational entropy             ...      0.02091626 Eh     13.13 kcal/mol
-----------------------------------------------------------------------
Final entropy term                ...      0.08018759 Eh     50.32 kcal/mol

In case the symmetry of your molecule has not been determined correctly
or in case you have a reason to use a different symmetry number we print 
out the resulting rotational entropy values for sn=1,12:

 non-linear molecules -----------------------------------
|  sn= 1 | S(rot)=       0.01713574 Eh     10.75 kcal/mol|
|  sn= 2 | S(rot)=       0.01648128 Eh     10.34 kcal/mol|
|  sn= 3 | S(rot)=       0.01609845 Eh     10.10 kcal/mol|
|  sn= 4 | S(rot)=       0.01582682 Eh      9.93 kcal/mol|
|  sn= 5 | S(rot)=       0.01561614 Eh      9.80 kcal/mol|
|  sn= 6 | S(rot)=       0.01544399 Eh      9.69 kcal/mol|
|  sn= 7 | S(rot)=       0.01529844 Eh      9.60 kcal/mol|
|  sn= 8 | S(rot)=       0.01517237 Eh      9.52 kcal/mol|
|  sn= 9 | S(rot)=       0.01506116 Eh      9.45 kcal/mol|
|  sn=10 | S(rot)=       0.01496168 Eh      9.39 kcal/mol|
|  sn=11 | S(rot)=       0.01487169 Eh      9.33 kcal/mol|
|  sn=12 | S(rot)=       0.01478953 Eh      9.28 kcal/mol|
 linear molecules ---------------------------------------
|  Dinfh | S(rot)=       0.01097834 Eh      6.89 kcal/mol|
|  Cinfv | S(rot)=       0.01163279 Eh      7.30 kcal/mol|
 --------------------------------------------------------


-------------------
GIBBS FREE ENERGY
-------------------

The Gibbs free energy is G = H - T*S

Total enthalpy                    ...  -3398.02329273 Eh 
Total entropy correction          ...     -0.08018759 Eh    -50.32 kcal/mol
-----------------------------------------------------------------------
Final Gibbs free energy         ...  -3398.10348032 Eh

For completeness - the Gibbs free energy minus the electronic energy
G-E(el)                           ...      0.24231782 Eh    152.06 kcal/mol


Maximum memory used throughout the entire PROP-calculation: 969.8 MB

--------------------------------
SUGGESTED CITATIONS FOR THIS RUN
--------------------------------

Below you find a list of papers that are relevant to this ORCA run
We neither can nor want to force you to cite these papers, but we appreciate if you do
You receive ORCA, which is the product of decades of hard work by many enthusiastic individuals, for free
The only thing we kindly ask in return is that you cite our papers,
We deeply appreciate it, if you show your appreciation for ORCA by not just citing the generic ORCA reference.

Please note that relegating all ORCA citations to the supporting information does *not* help us.
SI sections are not indexed - citations you put there will not count into any citation statistics
But we need these citations in order to attract the funding resources that allow us to do what we are doing

Therefore, if you are a happy ORCA user, please consider citing a few of the papers listed below in the main body of your paper

In addition to the list printed below, the program has created the file CELVEU-S6.bibtex that contains the list in bibtex format
You can import this file easily into all common literature databanks and citation aid programs


List of essential papers. We consider these as the minimum necessary citations

  1. Neese,F.
     Software update: the ORCA program system, version 5.0
     WIRES Comput. Molec. Sci., 2022 12(1)e1606
     doi.org/10.1002/wcms.1606

List of papers to cite with high priority. The work reported in these papers was absolutely
necessary for this run to complete.
Our perspective: the developers of density functionals and basis sets usually get cited in chemistry papers
Good! But without the algorithms to do something with them, the functionals or basis sets would not do anything.
Hence, in our opinion, the algorithm design and method developments papers are equally worthy of getting cited

  1. Neese,F.
     An improvement of the resolution of the identity approximation for the formation of the Coulomb matrix
     J. Comp. Chem., 2003 24(14)1740-1747
     doi.org/10.1002/jcc.10318
  2. Neese,F.; Wennmohs,F.; Hansen,A.; Becker,U.
     Efficient, approximate and parallel Hartree-Fock and hybrid DFT calculations. A 'chain-of-spheres' algorithm for the Hartree-Fock exchange
     Chem. Phys., 2009 356(1-3)98-109
     doi.org/10.1016/j.chemphys.2008.10.036
  3. Bykov,D.; Petrenko,T.; Izsak,R.; Kossmann,S.; Becker,U.; Valeev,E.; Neese,F.
     Efficient implementation of the analytic second derivatives of Hartree-Fock and hybrid DFT energies: a detailed analysis of different approximations
     Molec. Phys., 2015 113 1961-1977
     doi.org/10.1080/00268976.2015.1025114
  4. Helmich-Paris,B.; de Souza,B.; Neese,F.; Izsák,R.
     An improved chain of spheres for exchange algorithm
     J. Chem. Phys., 2021 155 104109
     doi.org/doi: 10.1063/5.0058766.
  5. Neese,F.
     The SHARK Integral Generation and Digestion System
     J. Comp. Chem., 2022  1-16
     doi.org/10.1002/jcc.26942

List of suggested additional citations. These are papers that are important in the 'surrounding' of 
of this run, or papers that preceded the highly important papers. If you like your results we are grateful for a citation.

  1. Izsak,R.; Neese,F.
     An overlap fitted chain of spheres exchange method
     J. Chem. Phys., 2011 135 144105
     doi.org/10.1063/1.3646921
  2. Izsak,R.; Hansen,A.; Neese,F.
     The resolution of identity and chain of spheres approximations for the LPNO-CCSD singles Fock term
     Molec. Phys., 2012 110 2413-2417
     doi.org/10.1080/00268976.2012.687466
  3. Neese,F.
     The ORCA program system
     WIRES Comput. Molec. Sci., 2012 2(1)73-78
     doi.org/10.1002/wcms.81
  4. Izsak,R.; Neese,F.; Klopper,W.
     Robust fitting techniques in the chain of spheres approximation to the Fock exchange: The role of the complementary space
     J. Chem. Phys., 2013 139 
     doi.org/10.1063/1.4819264
  5. Neese,F.
     Software update: the ORCA program system, version 4.0
     WIRES Comput. Molec. Sci., 2018 8(1)1-6
     doi.org/10.1002/wcms.1327
  6. Neese,F.; Wennmohs,F.; Becker,U.; Riplinger,C.
     The ORCA quantum chemistry program package
     J. Chem. Phys., 2020 152 Art. No. L224108
     doi.org/10.1063/5.0004608

List of optional additional citations

  1. Neese,F.
     Approximate second-order SCF convergence for spin unrestricted wavefunctions
     Chem. Phys. Lett., 2000 325(1-3)93-98
     doi.org/10.1016/s0009-2614(00)00662-x

Timings for individual modules:

Sum of individual times          ...     7817.279 sec (= 130.288 min)
Startup calculation              ...      194.517 sec (=   3.242 min)   2.5 %
SCF iterations                   ...     2638.368 sec (=  43.973 min)  33.8 %
Property integrals               ...     1741.621 sec (=  29.027 min)  22.3 %
SCF Response                     ...     1845.535 sec (=  30.759 min)  23.6 %
Property calculations            ...      672.387 sec (=  11.206 min)   8.6 %
SCF Gradient evaluation          ...      724.190 sec (=  12.070 min)   9.3 %
Geometry relaxation              ...        0.659 sec (=   0.011 min)   0.0 %
                             ****ORCA TERMINATED NORMALLY****
TOTAL RUN TIME: 0 days 2 hours 11 minutes 19 seconds 795 msec
