
                                 *****************
                                 * O   R   C   A *
                                 *****************

                                            #,                                       
                                            ###                                      
                                            ####                                     
                                            #####                                    
                                            ######                                   
                                           ########,                                 
                                     ,,################,,,,,                         
                               ,,#################################,,                 
                          ,,##########################################,,             
                       ,#########################################, ''#####,          
                    ,#############################################,,   '####,        
                  ,##################################################,,,,####,       
                ,###########''''           ''''###############################       
              ,#####''   ,,,,##########,,,,          '''####'''          '####       
            ,##' ,,,,###########################,,,                        '##       
           ' ,,###''''                  '''############,,,                           
         ,,##''                                '''############,,,,        ,,,,,,###''
      ,#''                                            '''#######################'''  
     '                                                          ''''####''''         
             ,#######,   #######,   ,#######,      ##                                
            ,#'     '#,  ##    ##  ,#'     '#,    #''#        ,####,   ,####,        
            ##       ##  ##   ,#'  ##            #'  '#       #'       #'  '#        
            ##       ##  #######   ##           ,######,      #####,   #    #        
            '#,     ,#'  ##    ##  '#,     ,#' ,#      #,     #,   #   #,  ,#        
             '#######'   ##     ##  '#######'  #'      '#     '####' # '####'        



                #########################################################
                #                        -***-                          #
                #          Department of theory and spectroscopy        #
                #                                                       #
                #                      Frank Neese                      #
                #                                                       #
                #     Directorship, Architecture, Infrastructure        #
                #                    SHARK, DRIVERS                     #
                #        Core code/Algorithms in most modules           #
                #                                                       #
                #        Max Planck Institute fuer Kohlenforschung      #
                #                Kaiser Wilhelm Platz 1                 #
                #                 D-45470 Muelheim/Ruhr                 #
                #                      Germany                          #
                #                                                       #
                #                  All rights reserved                  #
                #                        -***-                          #
                #########################################################


                         Program Version 6.0.1  -  RELEASE   -


 With contributions from (in alphabetic order):
[Max-Planck-Institut fuer Kohlenforschung]                               
  Daniel Aravena         : Magnetic Suceptibility                        
  Michael Atanasov       : Ab Initio Ligand Field Theory (pilot matlab implementation)
  Alexander A. Auer      : GIAO ZORA, VPT2 properties, NMR spectrum      
  Ute Becker             : All parallelization in ORCA, NUMFREQ, NUMCALC 
  Giovanni Bistoni       : ED, misc. LED, open-shell LED, HFLD           
  Martin Brehm           : Molecular dynamics                            
  Dmytro Bykov           : pre 5.0 version of the SCF Hessian            
  Marcos Casanova-Páez   : Triplet and SCS-CIS(D). UHF-(DLPNO)-IP/EA/STEOM-CCSD. UHF-CVS-IP/STEOM-CCSD   
  Vijay G. Chilkuri      : MRCI spin determinant printing, contributions to CSF-ICE 
  Pauline Colinet        : FMM embedding                                 
  Dipayan Datta          : RHF DLPNO-CCSD density                        
  Achintya Kumar Dutta   : EOM-CC, STEOM-CC                              
  Nicolas Foglia         : Exact transition moments, OPA infrastructure, MCD improvements    
  Dmitry Ganyushin       : Spin-Orbit,Spin-Spin,Magnetic field MRCI      
  Miquel Garcia-Rates    : C-PCM and meta-GGA Hessian, CCSD/C-PCM, Gaussian charge scheme 
  Tiago L. C. Gouveia    : GS-ROHF, GS-ROCIS                             
  Yang Guo               : DLPNO-NEVPT2, F12-NEVPT2, CIM, IAO-localization        
  Andreas Hansen         : Spin unrestricted coupled pair/coupled cluster methods 
  Ingolf Harden          : AUTO-CI MPn and infrastructure                
  Benjamin Helmich-Paris : MC-RPA, TRAH-(SCF,CASSCF), AVAS, COSX integrals, SCF dyn. polar. 
  Lee Huntington         : MR-EOM, pCC                                   
  Robert Izsak           : Overlap fitted RIJCOSX, COSX-SCS-MP3, EOM     
  Riya Kayal             : Wick's Theorem for AUTO-CI, AUTO-CI UHF-CCSDT 
  Emily Kempfer          : AUTO-CI, RHF CISDT and CCSDT                  
  Christian Kollmar      : KDIIS, OOCD, Brueckner-CCSD(T), CCSD density, CASPT2, CASPT2-K, improved NEVPT2 
  Axel Koslowski         : Symmetry handling                             
  Simone Kossmann        : meta-GGA functionals, TD-DFT gradient, OOMP2, (MP2 Hessian; deprecated post 5.0) 
  Lucas Lang             : DCDCAS                                        
  Marvin Lechner         : AUTO-CI (C++ implementation), FIC-MRCC        
  Spencer Leger          : CASSCF response                               
  Dagmar Lenk            : GEPOL surface, SMD, ORCA-2-JSON               
  Dimitrios Liakos       : Extrapolation schemes; Compound Job, initial MDCI parallelization 
  Dimitrios Manganas     : Further ROCIS development; embedding schemes. LFT, Crystal Embedding 
  Dimitrios Pantazis     : SARC Basis sets                               
  Anastasios Papadopoulos: AUTO-CI, single reference methods and gradients 
  Taras Petrenko         : pre 6.0 DFT Hessian and TD-DFT gradient, (ASA, deprecated), ECA, 1-Electron XAS/XES, NRVS 
  Peter Pinski           : DLPNO-MP2, DLPNO-MP2 Gradient                 
  Christoph Reimann      : Effective Core Potentials                     
  Marius Retegan         : Local ZFS, SOC                                
  Christoph Riplinger    : Optimizer, TS searches, QM/MM, DLPNO-CCSD(T), (RO)-DLPNO pert. Triples 
  Michael Roemelt        : Original ROCIS implementation                 
  Masaaki Saitow         : Open-shell DLPNO-CCSD energy and density      
  Barbara Sandhoefer     : DKH picture change effects                    
  Kantharuban Sivalingam : CASSCF convergence/infrastructure, NEVPT2 and variants, FIC-MRCI 
  Bernardo de Souza      : ESD, SOC TD-DFT                               
  Georgi L. Stoychev     : AutoAux, RI-MP2 NMR, DLPNO-MP2 response, X2C  
  Van Anh Tran           : RI-MP2 g-tensors                              
  Willem Van den Heuvel  : Paramagnetic NMR                              
  Zikuan Wang            : NOTCH, Electric field optimization            
  Frank Wennmohs         : Technical directorship and infrastructure     
  Hang Xu                : AUTO-CI-Response properties                   
                                                                         
[FACCTs GmbH]                                                            
  Markus Bursch, Miquel Garcia-Rates, Christoph Riplinger, Bernardo de Souza, Georgi L. Stoychev 
                                                                 
  APM, Basis sets (HGBS, AHGBS, def-TZVP (Ac-Lr), def2-XVPD (La-Lu)), CI-OPT, improved COSX, DLPNO-Multilevel,           
  DOCKER, DRACO, updates on ESD, GOAT, IRC, LR-CPCM, MBIS, meta-GGA TD-DFT gradient, ML-optimized integration grids, 
  MM, NACMEs, nearIR, NEB, NEB-TS, NL-DFT gradient (VV10), 2- and 3-layer-ONIOM, interface openCOSMO-RS, QMMM,   
  Crystal-QMMM, SF, symmetry and pop. for TD-DFT, r2SCAN hybrids, SOLVATOR                                   
                                                                         
[Other institutions]                                                     
  V. Asgeirsson          : NEB                                           
  Christoph Bannwarth    : sTDA-DFT, sTD-DFT, PBEh-3c, B97-3c, D3        
  Sebastian Ehlert       : rSCAN, r2SCAN, r2SCAN-3c, D4, dhf basis sets  
  Marvin Friede          : D4 for Fr, Ra, Ac-Lr                          
  Lars Goerigk           : TD-DFT with DH, B97 family of functionals     
  Stefan Grimme          : VdW corrections, initial TS optimization, DFT functionals, gCP, sTDA/sTD-DF 
  Waldemar Hujo          : DFT-NL                                        
  H. Jonsson             : NEB                                           
  Holger Kruse           : gCP                                           
  Marcel Mueller         : wB97X-3c, vDZP basis set                      
  Hagen Neugebauer       : wr2SCAN                                       
  Tobias Risthaus        : range-separated hybrid DFT                    
  Lukas Wittmann         : regularized MP2, r2SCAN double-hybrids, wr2SCAN        
                                                                         
We gratefully acknowledge several colleagues who have allowed us to      
interface, adapt or use parts of their codes:                            
  Ed Valeev, F. Pavosevic, A. Kumar             : LibInt (2-el integral package), F12 methods 
  Garnet Chan, S. Sharma, J. Yang, R. Olivares  : DMRG                   
  Ulf Ekstrom                                   : XCFun DFT Library      
  Mihaly Kallay                                 : mrcc  (arbitrary order and MRCC methods)
  Frank Weinhold                                : gennbo (NPA and NBO analysis)           
  Simon Mueller                                 : openCOSMO-RS                            
  Christopher J. Cramer and Donald G. Truhlar   : smd solvation model                     
  S Lehtola, MJT Oliveira, MAL Marques          : LibXC Library                           
  Liviu Ungur et al                             : ANISO software                          


 Your calculation uses the libint2 library for the computation of 2-el integrals
 For citations please refer to: http://libint.valeyev.net

 Your ORCA version has been built with support for libXC version: 6.2.2
 For citations please refer to: https://libxc.gitlab.io

 This ORCA versions uses:
   CBLAS   interface :  Fast vector & matrix operations
   LAPACKE interface :  Fast linear algebra routines
   SCALAPACK package :  Parallel linear algebra routines
   Shared memory     :  Shared parallel matrices
   BLAS/LAPACK       :  OpenBLAS 0.3.27  USE64BITINT DYNAMIC_ARCH NO_AFFINITY Cooperlake SINGLE_THREADED
        Core in use  :  Cooperlake
   Copyright (c) 2011-2014, The OpenBLAS Project


NOTE: MaxCore=3600 MB was set to SCF,MP2,MDCI,CIPSI,MRCI and CIS
      => If you want to overwrite this, your respective input block should be placed after the MaxCore statement
Warning: RI is on but no J-basis has been assigned. Assigning Def2/J (nothing to worry about!)
================================================================================

----- Orbital basis set information -----
Your calculation utilizes the basis: def2-TZVP
   F. Weigend and R. Ahlrichs, Phys. Chem. Chem. Phys. 7, 3297 (2005).

----- AuxJ basis set information -----
Your calculation utilizes the auxiliary basis: def2/J
   F. Weigend, Phys. Chem. Chem. Phys. 8, 1057 (2006).

================================================================================
                                        WARNINGS
                       Please study these warnings very carefully!
================================================================================


WARNING: your system is open-shell and RHF/RKS was chosen
  ===> : WILL SWITCH to UHF/UKS


WARNING: Geometry Optimization
  ===> : Switching off AutoStart
         For restart on a previous wavefunction, please use MOREAD

================================================================================
                                       INPUT FILE
================================================================================
NAME = ELIRUN-S6.inp
|  1> ! PBE0 def2-TZVP  Opt Freq DEFGRID3
|  2> 
|  3> %maxcore 3600
|  4> 
|  5> %pal
|  6>     nprocs 16
|  7> end
|  8> 
|  9> *xyz 0 6
| 10> C 4.4581 18.1655 0.4261
| 11> C 4.1116 19.2808 -0.2827
| 12> H 3.4726 19.2189 -0.9552
| 13> C 4.6948 20.4843 -0.0125
| 14> H 4.4135 21.2439 -0.472
| 15> C 5.6928 20.5941 0.9288
| 16> C 6.1291 19.4896 1.6041
| 17> H 6.8314 19.5546 2.2098
| 18> C 5.5055 18.2583 1.3688
| 19> C 6.019 17.1058 2.0942
| 20> H 6.8631 17.1646 2.4799
| 21> C 5.9373 14.8489 2.8823
| 22> H 6.6461 15.1428 3.4755
| 23> H 6.3245 14.258 2.2182
| 24> C 4.902 14.1141 3.6649
| 25> C 4.5259 14.9665 4.8944
| 26> H 3.7696 14.5735 5.3372
| 27> H 4.3041 15.8559 4.6118
| 28> H 5.2702 15.0005 5.5001
| 29> C 5.4428 12.7621 4.1133
| 30> H 5.7362 12.264 3.3474
| 31> H 4.7499 12.2748 4.5658
| 32> H 6.1813 12.8951 4.712
| 33> C 2.9679 13.0034 2.7208
| 34> H 3.2037 12.3088 3.2917
| 35> C 1.7806 12.8147 1.884
| 36> C 1.0848 11.5973 1.9981
| 37> H 1.3906 10.9491 2.5913
| 38> C -0.0021 11.3559 1.2727
| 39> C -0.5019 12.3181 0.3968
| 40> H -1.2733 12.1511 -0.0947
| 41> C 0.1545 13.5093 0.2687
| 42> H -0.1745 14.1543 -0.3147
| 43> C 1.3113 13.7707 1.0026
| 44> N 5.347 15.989 2.2307
| 45> N 3.7091 14.0491 2.7292
| 46> O 3.8797 16.9635 0.1546
| 47> O 1.9459 14.9216 0.7658
| 48> Cl 2.3568 17.1569 2.9979
| 49> Cl 6.4402 22.1287 1.2476
| 50> Cl -0.862 9.84 1.4175
| 51> Fe 3.3867 15.7613 1.5832
| 52> *
| 53> 
| 54>                          ****END OF INPUT****
================================================================================

                       *****************************
                       * Geometry Optimization Run *
                       *****************************

Geometry optimization settings:
Update method            Update   .... BFGS
Choice of coordinates    CoordSys .... (2022) Redundant Internals
Initial Hessian          InHess   .... Almloef's Model
Max. no of cycles        MaxIter  .... 126

Convergence Tolerances:
Energy Change            TolE     ....  5.0000e-06 Eh
Max. Gradient            TolMAXG  ....  3.0000e-04 Eh/bohr
RMS Gradient             TolRMSG  ....  1.0000e-04 Eh/bohr
Max. Displacement        TolMAXD  ....  4.0000e-03 bohr
RMS Displacement         TolRMSD  ....  2.0000e-03 bohr
Strict Convergence                .... False

------------------------------------------------------------------------------
                        ORCA OPTIMIZATION COORDINATE SETUP
------------------------------------------------------------------------------

The optimization will be done in redundant internal coordinates (2022)
Making redundant internal coordinates   ...  (2022 redundants) done
Evaluating the initial hessian          ...  (Almloef) done
Evaluating the coordinates              ...  done
Calculating the B-matrix                .... done
Calculating the G-matrix                .... done
Diagonalizing the G-matrix              .... done
Small eigenvalue found = 1.391e-02
Small eigenvalue found = 2.282e-02
Small eigenvalue found = 2.841e-02
The first mode is                       ....  126
The number of degrees of freedom        ....  120

    -----------------------------------------------------------------
                    Redundant Internal Coordinates


    -----------------------------------------------------------------
         Definition                    Initial Value    Approx d2E/dq
    -----------------------------------------------------------------
      1. B(C   1,C   0)                  1.3661         0.682019   
      2. B(H   2,C   1)                  0.9297         0.648805   
      3. B(C   3,C   1)                  1.3644         0.686448   
      4. B(H   4,C   3)                  0.9313         0.645161   
      5. B(C   5,C   3)                  1.3763         0.657131   
      6. B(C   6,C   5)                  1.3661         0.682061   
      7. B(H   7,C   6)                  0.9297         0.648915   
      8. B(C   8,C   6)                  1.4001         0.601989   
      9. B(C   8,C   0)                  1.4122         0.575839   
     10. B(C   9,C   8)                  1.4554         0.491385   
     11. B(H  10,C   9)                  0.9299         0.648398   
     12. B(H  12,C  11)                  0.9699         0.559851   
     13. B(H  13,C  11)                  0.9696         0.560429   
     14. B(C  14,C  11)                  1.4914         0.430506   
     15. B(C  15,C  14)                  1.5426         0.356638   
     16. B(H  16,C  15)                  0.9605         0.579527   
     17. B(H  17,C  15)                  0.9592         0.582217   
     18. B(H  18,C  15)                  0.9602         0.580081   
     19. B(C  19,C  14)                  1.5236         0.382428   
     20. B(H  20,C  19)                  0.9596         0.581438   
     21. B(H  21,C  19)                  0.9604         0.579729   
     22. B(H  22,C  19)                  0.9600         0.580634   
     23. B(H  24,C  23)                  0.9295         0.649333   
     24. B(C  25,C  23)                  1.4648         0.474748   
     25. B(C  26,C  25)                  1.4068         0.587300   
     26. B(H  27,C  26)                  0.9304         0.647328   
     27. B(C  28,C  26)                  1.3288         0.782180   
     28. B(C  29,C  28)                  1.3939         0.616012   
     29. B(H  30,C  29)                  0.9298         0.648664   
     30. B(C  31,C  29)                  1.3661         0.682135   
     31. B(H  32,C  31)                  0.9299         0.648533   
     32. B(C  33,C  31)                  1.3947         0.614152   
     33. B(C  33,C  25)                  1.3824         0.642474   
     34. B(N  34,C  11)                  1.4397         0.466134   
     35. B(N  34,C   9)                  1.3105         0.749348   
     36. B(N  35,C  23)                  1.2818         0.832814   
     37. B(N  35,C  14)                  1.5175         0.350329   
     38. B(O  36,C   0)                  1.3613         0.621883   
     39. B(O  37,C  33)                  1.3354         0.683825   
     40. B(Cl 39,C   5)                  1.7364         0.392650   
     41. B(Cl 40,C  28)                  1.7488         0.375207   
     42. B(Fe 41,Cl 38)                  2.2383         0.628823   
     43. B(Fe 41,O  37)                  1.8572         1.017732   
     44. B(Fe 41,O  36)                  1.9311         0.775666   
     45. B(Fe 41,N  35)                  2.0854         0.440085   
     46. B(Fe 41,N  34)                  2.0770         0.453894   
     47. A(C   8,C   0,O  36)          120.4174         0.425782   
     48. A(C   1,C   0,O  36)          120.6384         0.438932   
     49. A(C   1,C   0,C   8)          118.7380         0.435745   
     50. A(C   0,C   1,C   3)          120.5943         0.449812   
     51. A(H   2,C   1,C   3)          119.7194         0.397556   
     52. A(C   0,C   1,H   2)          119.6863         0.397105   
     53. A(H   4,C   3,C   5)          119.4350         0.394134   
     54. A(C   1,C   3,H   4)          119.5150         0.397163   
     55. A(C   1,C   3,C   5)          121.0499         0.446789   
     56. A(C   3,C   5,C   6)          120.3432         0.446270   
     57. A(C   3,C   5,Cl 39)          120.5437         0.422483   
     58. A(C   6,C   5,Cl 39)          119.0973         0.425306   
     59. A(C   5,C   6,C   8)          119.0575         0.439253   
     60. A(C   5,C   6,H   7)          120.4496         0.397121   
     61. A(H   7,C   6,C   8)          120.4927         0.388534   
     62. A(C   0,C   8,C   6)          120.0203         0.426086   
     63. A(C   0,C   8,C   9)          122.8446         0.410948   
     64. A(C   6,C   8,C   9)          117.0967         0.414201   
     65. A(C   8,C   9,H  10)          118.4852         0.375030   
     66. A(C   8,C   9,N  34)          123.0811         0.427911   
     67. A(H  10,C   9,N  34)          118.4337         0.401106   
     68. A(H  13,C  11,N  34)          109.6541         0.360210   
     69. A(H  12,C  11,N  34)          109.6628         0.360147   
     70. A(H  12,C  11,H  13)          108.1645         0.335526   
     71. A(H  13,C  11,C  14)          109.6556         0.357583   
     72. A(C  14,C  11,N  34)          110.0613         0.384407   
     73. A(H  12,C  11,C  14)          109.6135         0.357520   
     74. A(C  15,C  14,N  35)          108.8724         0.354365   
     75. A(C  15,C  14,C  19)          110.0169         0.361928   
     76. A(C  11,C  14,C  19)          110.1960         0.373808   
     77. A(C  11,C  14,C  15)          108.3748         0.369343   
     78. A(C  19,C  14,N  35)          114.9913         0.358591   
     79. A(C  11,C  14,N  35)          104.0779         0.365915   
     80. A(H  17,C  15,H  18)          109.4053         0.339669   
     81. A(H  16,C  15,H  18)          109.5142         0.339406   
     82. A(C  14,C  15,H  18)          109.4715         0.348396   
     83. A(H  16,C  15,H  17)          109.4595         0.339615   
     84. A(C  14,C  15,H  16)          109.4707         0.348339   
     85. A(C  14,C  15,H  17)          109.5061         0.348611   
     86. A(C  14,C  19,H  22)          109.4914         0.352584   
     87. A(H  20,C  19,H  21)          109.4683         0.339559   
     88. A(C  14,C  19,H  21)          109.4404         0.352491   
     89. A(C  14,C  19,H  20)          109.5264         0.352667   
     90. A(H  21,C  19,H  22)          109.3591         0.339480   
     91. A(H  20,C  19,H  22)          109.5415         0.339647   
     92. A(C  25,C  23,N  35)          125.2798         0.433414   
     93. A(H  24,C  23,N  35)          117.3177         0.408760   
     94. A(H  24,C  23,C  25)          117.4026         0.372901   
     95. A(C  26,C  25,C  33)          118.8314         0.432618   
     96. A(C  23,C  25,C  33)          123.3896         0.416464   
     97. A(C  23,C  25,C  26)          117.7776         0.409876   
     98. A(H  27,C  26,C  28)          119.3628         0.406646   
     99. A(C  25,C  26,C  28)          121.1618         0.448267   
    100. A(C  25,C  26,H  27)          119.4753         0.386698   
    101. A(C  26,C  28,C  29)          120.7252         0.452169   
    102. A(C  29,C  28,Cl 40)          118.3005         0.414279   
    103. A(C  26,C  28,Cl 40)          120.9605         0.432345   
    104. A(H  30,C  29,C  31)          120.3768         0.397101   
    105. A(C  28,C  29,H  30)          120.3766         0.390072   
    106. A(C  28,C  29,C  31)          119.2466         0.441092   
    107. A(H  32,C  31,C  33)          119.5785         0.389853   
    108. A(C  29,C  31,C  33)          120.8389         0.440851   
    109. A(C  29,C  31,H  32)          119.5825         0.397087   
    110. A(C  25,C  33,O  37)          123.2112         0.441732   
    111. A(C  25,C  33,C  31)          119.1744         0.436113   
    112. A(C  31,C  33,O  37)          117.5403         0.438151   
    113. A(C   9,N  34,C  11)          120.7787         0.421133   
    114. A(C  11,N  34,Fe 41)          116.1835         0.432270   
    115. A(C   9,N  34,Fe 41)          123.0192         0.471208   
    116. A(C  14,N  35,C  23)          119.5748         0.407874   
    117. A(C  23,N  35,Fe 41)          125.2276         0.477726   
    118. A(C  14,N  35,Fe 41)          115.1640         0.408540   
    119. A(C   0,O  36,Fe 41)          120.7057         0.502662   
    120. A(C  33,O  37,Fe 41)          132.8654         0.538446   
    121. A(O  37,Fe 41,Cl 38)          101.7201         0.623801   
    122. A(O  36,Fe 41,Cl 38)          101.3547         0.591914   
    123. A(N  35,Fe 41,Cl 38)          103.6351         0.531367   
    124. A(N  34,Fe 41,Cl 38)           99.7230         0.534472   
    125. A(O  36,Fe 41,O  37)           98.8548         0.624388   
    126. A(N  35,Fe 41,O  37)           89.4603         0.559932   
    127. A(N  34,Fe 41,O  37)          156.7787         0.563237   
    128. A(N  35,Fe 41,O  36)          151.4256         0.531853   
    129. A(N  34,Fe 41,O  36)           85.4934         0.534961   
    130. A(N  34,Fe 41,N  35)           76.8666         0.481271   
    131. D(H   2,C   1,C   0,C   8)    175.0003         0.032621   
    132. D(C   3,C   1,C   0,C   8)     -4.9998         0.032621   
    133. D(H   2,C   1,C   0,O  36)      0.1967         0.032621   
    134. D(C   3,C   1,C   0,O  36)   -179.8034         0.032621   
    135. D(H   4,C   3,C   1,C   0)   -176.6000         0.033081   
    136. D(C   5,C   3,C   1,H   2)   -176.6005         0.033081   
    137. D(C   5,C   3,C   1,C   0)      3.3996         0.033081   
    138. D(H   4,C   3,C   1,H   2)      3.3999         0.033081   
    139. D(C   6,C   5,C   3,C   1)      0.6634         0.030113   
    140. D(C   6,C   5,C   3,H   4)   -179.3370         0.030113   
    141. D(Cl 39,C   5,C   3,C   1)    179.2044         0.030113   
    142. D(Cl 39,C   5,C   3,H   4)     -0.7960         0.030113   
    143. D(C   8,C   6,C   5,C   3)     -2.8800         0.032626   
    144. D(H   7,C   6,C   5,Cl 39)     -1.5790         0.032626   
    145. D(H   7,C   6,C   5,C   3)    176.9830         0.032626   
    146. D(C   8,C   6,C   5,Cl 39)    178.5580         0.032626   
    147. D(C   9,C   8,C   6,H   7)     -0.8712         0.024991   
    148. D(C   0,C   8,C   6,H   7)   -178.6811         0.024991   
    149. D(C   0,C   8,C   6,C   5)      1.1819         0.024991   
    150. D(C   9,C   8,C   6,C   5)    178.9917         0.024991   
    151. D(C   6,C   8,C   0,O  36)    177.5456         0.022767   
    152. D(C   9,C   8,C   0,C   1)   -174.9491         0.022767   
    153. D(C   6,C   8,C   0,C   1)      2.7302         0.022767   
    154. D(C   9,C   8,C   0,O  36)     -0.1336         0.022767   
    155. D(H  10,C   9,C   8,C   0)    160.3876         0.016442   
    156. D(N  34,C   9,C   8,C   0)    -19.6850         0.016442   
    157. D(H  10,C   9,C   8,C   6)    -17.3553         0.016442   
    158. D(N  34,C   9,C   8,C   6)    162.5721         0.016442   
    159. D(C  15,C  14,C  11,N  34)    -71.3587         0.014651   
    160. D(C  15,C  14,C  11,H  13)    167.9338         0.014651   
    161. D(C  15,C  14,C  11,H  12)     49.3329         0.014651   
    162. D(C  19,C  14,C  11,N  34)    168.2102         0.014651   
    163. D(C  19,C  14,C  11,H  13)     47.5026         0.014651   
    164. D(C  19,C  14,C  11,H  12)    -71.0983         0.014651   
    165. D(H  17,C  15,C  14,N  35)    -61.0508         0.010218   
    166. D(H  17,C  15,C  14,C  19)    172.0992         0.010218   
    167. D(H  17,C  15,C  14,C  11)     51.5567         0.010218   
    168. D(H  16,C  15,C  14,C  19)    -67.8940         0.010218   
    169. D(H  16,C  15,C  14,C  11)    171.5634         0.010218   
    170. D(H  16,C  15,C  14,N  35)     58.9559         0.010218   
    171. D(H  21,C  19,C  14,N  35)    -59.0955         0.011649   
    172. D(H  21,C  19,C  14,C  15)     64.2461         0.011649   
    173. D(H  21,C  19,C  14,C  11)   -176.3156         0.011649   
    174. D(H  20,C  19,C  14,N  35)     60.9159         0.011649   
    175. D(H  20,C  19,C  14,C  15)   -175.7425         0.011649   
    176. D(H  20,C  19,C  14,C  11)    -56.3042         0.011649   
    177. D(C  33,C  25,C  23,N  35)     -0.7220         0.015346   
    178. D(C  33,C  25,C  23,H  24)    179.3185         0.015346   
    179. D(C  26,C  25,C  23,N  35)    179.7153         0.015346   
    180. D(C  26,C  25,C  23,H  24)     -0.2443         0.015346   
    181. D(C  28,C  26,C  25,C  33)      0.3027         0.023726   
    182. D(C  28,C  26,C  25,C  23)    179.8859         0.023726   
    183. D(H  27,C  26,C  25,C  33)   -179.7305         0.023726   
    184. D(H  27,C  26,C  25,C  23)     -0.1473         0.023726   
    185. D(Cl 40,C  28,C  26,H  27)     -0.0332         0.044000   
    186. D(C  29,C  28,C  26,H  27)    178.5904         0.044000   
    187. D(C  29,C  28,C  26,C  25)     -1.4427         0.044000   
    188. D(Cl 40,C  28,C  26,C  25)    179.9336         0.044000   
    189. D(C  31,C  29,C  28,Cl 40)    179.9941         0.026238   
    190. D(C  31,C  29,C  28,C  26)      1.3346         0.026238   
    191. D(H  30,C  29,C  28,Cl 40)     -0.0049         0.026238   
    192. D(H  30,C  29,C  28,C  26)   -178.6644         0.026238   
    193. D(H  32,C  31,C  29,C  28)    179.9594         0.032633   
    194. D(C  33,C  31,C  29,H  30)    179.9099         0.032633   
    195. D(C  33,C  31,C  29,C  28)     -0.0892         0.032633   
    196. D(H  32,C  31,C  29,H  30)     -0.0416         0.032633   
    197. D(O  37,C  33,C  31,H  32)     -4.0963         0.026070   
    198. D(O  37,C  33,C  31,C  29)    175.9522         0.026070   
    199. D(C  25,C  33,C  31,H  32)    178.9321         0.026070   
    200. D(C  25,C  33,C  31,C  29)     -1.0194         0.026070   
    201. D(O  37,C  33,C  25,C  26)   -175.8708         0.028694   
    202. D(O  37,C  33,C  25,C  23)      4.5708         0.028694   
    203. D(C  31,C  33,C  25,C  26)      0.9196         0.028694   
    204. D(C  31,C  33,C  25,C  23)   -178.6388         0.028694   
    205. D(Fe 41,N  34,C  11,H  13)     86.4832         0.018558   
    206. D(Fe 41,N  34,C  11,H  12)   -154.8872         0.018558   
    207. D(C   9,N  34,C  11,C  14)    144.2488         0.018558   
    208. D(C   9,N  34,C  11,H  13)    -95.0428         0.018558   
    209. D(C   9,N  34,C  11,H  12)     23.5869         0.018558   
    210. D(Fe 41,N  34,C   9,H  10)    174.1547         0.047144   
    211. D(Fe 41,N  34,C   9,C   8)     -5.7728         0.047144   
    212. D(C  11,N  34,C   9,H  10)     -4.2122         0.047144   
    213. D(C  11,N  34,C   9,C   8)    175.8604         0.047144   
    214. D(Fe 41,N  35,C  23,C  25)      1.4036         0.059732   
    215. D(C  14,N  35,C  23,C  25)    179.1905         0.059732   
    216. D(C  14,N  35,C  23,H  24)     -0.8498         0.059732   
    217. D(Fe 41,N  35,C  14,C  15)     77.1191         0.010593   
    218. D(Fe 41,N  35,C  14,C  11)    -38.2963         0.010593   
    219. D(C  23,N  35,C  14,C  19)     23.0651         0.010593   
    220. D(Fe 41,N  35,C  23,H  24)   -178.6368         0.059732   
    221. D(C  23,N  35,C  14,C  15)   -100.8837         0.010593   
    222. D(C  23,N  35,C  14,C  11)    143.7009         0.010593   
    223. D(Fe 41,O  36,C   0,C   8)     45.2385         0.028386   
    224. D(Fe 41,O  36,C   0,C   1)   -140.0453         0.028386   
    225. D(Fe 41,O  37,C  33,C  31)    173.1632         0.034865   
    226. D(Fe 41,O  37,C  33,C  25)     -9.9973         0.034865   
    227. D(Cl 38,Fe 41,O  37,C  33)    -95.4727         0.006298   
    228. D(O  36,Fe 41,O  37,C  33)    160.8875         0.006298   
    229. D(N  35,Fe 41,O  37,C  33)      8.3439         0.006298   
    230. D(N  34,Fe 41,O  37,C  33)     61.5981         0.006298   
    231. D(Cl 38,Fe 41,O  36,C   0)     46.3697         0.004256   
    232. D(N  35,Fe 41,O  36,C   0)   -104.2538         0.004256   
    233. D(N  34,Fe 41,O  36,C   0)    -52.6609         0.004256   
    234. D(O  37,Fe 41,N  35,C  23)     -3.9108         0.002453   
    235. D(O  37,Fe 41,N  35,C  14)    178.2156         0.002453   
    236. D(O  36,Fe 41,N  35,C  23)   -111.6418         0.002453   
    237. D(O  36,Fe 41,N  35,C  14)     70.4847         0.002453   
    238. D(N  34,Fe 41,N  35,C  23)   -164.9801         0.002453   
    239. D(N  34,Fe 41,N  35,C  14)     17.1464         0.002453   
    240. D(O  37,Fe 41,O  36,C   0)    150.3134         0.004256   
    241. D(O  37,Fe 41,N  34,C  11)    -45.8925         0.002513   
    242. D(O  37,Fe 41,N  34,C   9)    135.6710         0.002513   
    243. D(O  36,Fe 41,N  34,C  11)   -147.8925         0.002513   
    244. D(O  36,Fe 41,N  34,C   9)     33.6711         0.002513   
    245. D(N  35,Fe 41,N  34,C  11)      9.4719         0.002513   
    246. D(N  35,Fe 41,N  34,C   9)   -168.9646         0.002513   
    -----------------------------------------------------------------

Number of atoms                         .... 42
Number of degrees of freedom            .... 246


         *************************************************************
         *                GEOMETRY OPTIMIZATION CYCLE   1            *
         *************************************************************
---------------------------------
CARTESIAN COORDINATES (ANGSTROEM)
---------------------------------
  C      4.458100   18.165500    0.426100
  C      4.111600   19.280800   -0.282700
  H      3.472600   19.218900   -0.955200
  C      4.694800   20.484300   -0.012500
  H      4.413500   21.243900   -0.472000
  C      5.692800   20.594100    0.928800
  C      6.129100   19.489600    1.604100
  H      6.831400   19.554600    2.209800
  C      5.505500   18.258300    1.368800
  C      6.019000   17.105800    2.094200
  H      6.863100   17.164600    2.479900
  C      5.937300   14.848900    2.882300
  H      6.646100   15.142800    3.475500
  H      6.324500   14.258000    2.218200
  C      4.902000   14.114100    3.664900
  C      4.525900   14.966500    4.894400
  H      3.769600   14.573500    5.337200
  H      4.304100   15.855900    4.611800
  H      5.270200   15.000500    5.500100
  C      5.442800   12.762100    4.113300
  H      5.736200   12.264000    3.347400
  H      4.749900   12.274800    4.565800
  H      6.181300   12.895100    4.712000
  C      2.967900   13.003400    2.720800
  H      3.203700   12.308800    3.291700
  C      1.780600   12.814700    1.884000
  C      1.084800   11.597300    1.998100
  H      1.390600   10.949100    2.591300
  C     -0.002100   11.355900    1.272700
  C     -0.501900   12.318100    0.396800
  H     -1.273300   12.151100   -0.094700
  C      0.154500   13.509300    0.268700
  H     -0.174500   14.154300   -0.314700
  C      1.311300   13.770700    1.002600
  N      5.347000   15.989000    2.230700
  N      3.709100   14.049100    2.729200
  O      3.879700   16.963500    0.154600
  O      1.945900   14.921600    0.765800
  Cl     2.356800   17.156900    2.997900
  Cl     6.440200   22.128700    1.247600
  Cl    -0.862000    9.840000    1.417500
  Fe     3.386700   15.761300    1.583200

----------------------------
CARTESIAN COORDINATES (A.U.)
----------------------------
  NO LB      ZA    FRAG     MASS         X           Y           Z
   0 C     6.0000    0    12.011    8.424588   34.327820    0.805212
   1 C     6.0000    0    12.011    7.769798   36.435432   -0.534226
   2 H     1.0000    0     1.008    6.562263   36.318458   -1.805066
   3 C     6.0000    0    12.011    8.871886   38.709717   -0.023622
   4 H     1.0000    0     1.008    8.340306   40.145153   -0.891951
   5 C     6.0000    0    12.011   10.757833   38.917209    1.755178
   6 C     6.0000    0    12.011   11.582320   36.830006    3.031310
   7 H     1.0000    0     1.008   12.909475   36.952839    4.175917
   8 C     6.0000    0    12.011   10.403887   34.503187    2.586657
   9 C     6.0000    0    12.011   11.374262   32.325277    3.957464
  10 H     1.0000    0     1.008   12.969379   32.436393    4.686332
  11 C     6.0000    0    12.011   11.219871   28.060354    5.446758
  12 H     1.0000    0     1.008   12.559309   28.615745    6.567743
  13 H     1.0000    0     1.008   11.951573   26.943715    4.191791
  14 C     6.0000    0    12.011    9.263438   26.671784    6.925657
  15 C     6.0000    0    12.011    8.552712   28.282586    9.249076
  16 H     1.0000    0     1.008    7.123512   27.539924   10.085846
  17 H     1.0000    0     1.008    8.133570   29.963309    8.715039
  18 H     1.0000    0     1.008    9.959235   28.346837   10.393683
  19 C     6.0000    0    12.011   10.285401   24.116874    7.773011
  20 H     1.0000    0     1.008   10.839847   23.175601    6.325669
  21 H     1.0000    0     1.008    8.976010   23.196010    8.628112
  22 H     1.0000    0     1.008   11.680964   24.368207    8.904390
  23 C     6.0000    0    12.011    5.608518   24.572865    5.141567
  24 H     1.0000    0     1.008    6.054116   23.260261    6.220412
  25 C     6.0000    0    12.011    3.364846   24.216273    3.560244
  26 C     6.0000    0    12.011    2.049975   21.915721    3.775862
  27 H     1.0000    0     1.008    2.627853   20.690800    4.896847
  28 C     6.0000    0    12.011   -0.003968   21.459541    2.405054
  29 C     6.0000    0    12.011   -0.948454   23.277835    0.749843
  30 H     1.0000    0     1.008   -2.406188   22.962251   -0.178957
  31 C     6.0000    0    12.011    0.291963   25.528877    0.507769
  32 H     1.0000    0     1.008   -0.329757   26.747751   -0.594697
  33 C     6.0000    0    12.011    2.477998   26.022852    1.894639
  34 N     7.0000    0    14.007   10.104366   30.214831    4.215412
  35 N     7.0000    0    14.007    7.009183   26.548951    5.157441
  36 O     8.0000    0    15.999    7.331570   32.056369    0.292152
  37 O     8.0000    0    15.999    3.677218   28.197737    1.447152
  38 Cl   17.0000    0    35.453    4.453707   32.421842    5.665210
  39 Cl   17.0000    0    35.453   12.170214   41.817183    2.357622
  40 Cl   17.0000    0    35.453   -1.628944   18.594905    2.678687
  41 Fe   26.0000    0    55.850    6.399935   29.784541    2.991814

--------------------------------
INTERNAL COORDINATES (ANGSTROEM)
--------------------------------
 C      0   0   0     0.000000000000     0.00000000     0.00000000
 C      1   0   0     1.366145592534     0.00000000     0.00000000
 H      2   1   0     0.929735908740   119.68625553     0.00000000
 C      2   1   3     1.364383571434   120.59432095   179.99991344
 H      4   2   1     0.931269080341   119.51503174   183.40002252
 C      4   2   1     1.376265137973   121.04994164     3.39959776
 C      6   4   2     1.366128848242   120.34316879     0.66338526
 H      7   6   4     0.929689614872   120.44964617   176.98302234
 C      7   6   4     1.400122401792   119.05747320   357.11997449
 C      9   7   6     1.455384368475   117.09673939   178.99174884
 H     10   9   7     0.929906844797   118.48515780   342.64471146
 C     10   9   7     2.391939403497   154.07286105   167.47004090
 H     12  10   9     0.969876739591    83.72137319   194.32498211
 H     12  10   9     0.969595513603   109.61591578    87.24309160
 C     12  10   9     1.491388577803   131.41319171   305.01103225
 C     15  12  10     1.542629968593   108.37475783   310.15488581
 H     16  15  12     0.960474117298   109.47074666   171.56344186
 H     16  15  12     0.959213406912   109.50612234    51.55671274
 H     16  15  12     0.960214028225   109.47150268   291.61594774
 C     15  12  10     1.523624363155   110.19598575   189.72371806
 H     20  15  12     0.959578021841   109.52638327   303.69575056
 H     20  15  12     0.960379065786   109.44040572   183.68438757
 H     20  15  12     0.959954655179   109.49137831    63.82813263
 C     15  12  10     2.421925289929   125.15287383    85.38794386
 H     24  15  12     0.929514717474    84.30089215   134.62866487
 C     24  15  12     1.464760465059   158.29273059   313.60063379
 C     26  24  15     1.406847258945   117.77760937   180.90795834
 H     27  26  24     0.930356447820   119.47530896   359.85273134
 C     27  26  24     1.328845638139   121.16183533   179.88590889
 C     29  27  26     1.393854257087   120.72515202   358.55727906
 H     30  29  27     0.929795251655   120.37662365   181.33560567
 C     30  29  27     1.366099560793   119.24660847     1.33461190
 H     32  30  29     0.929850289025   119.58253811   179.95938160
 C     26  24  15     1.382405313213   123.38962270     0.47070372
 N     10   9   7     1.310518405060   123.08108475   162.57214941
 N     24  15  12     1.281770841453    33.01983008   315.38747378
 O      1   2   3     1.361272496600   120.63842511     0.19671640
 O     34  26  24     1.335425853427   123.21119412     4.57083184
 Cl    18  16  15     2.844160948329   138.55834111    63.03560345
 Cl     6   4   2     1.736443883343   120.54374826   179.20444397
 Cl    29  27  26     1.748813271908   120.96052131   179.93362799
 Fe    38  34  26     1.857186983047   132.86538540   350.00266349

---------------------------
INTERNAL COORDINATES (A.U.)
---------------------------
 C      0   0   0     0.000000000000     0.00000000     0.00000000
 C      1   0   0     2.581641028953     0.00000000     0.00000000
 H      2   1   0     1.756946244390   119.68625553     0.00000000
 C      2   1   3     2.578311291632   120.59432095   179.99991344
 H      4   2   1     1.759843518834   119.51503174   183.40002252
 C      4   2   1     2.600764198432   121.04994164     3.39959776
 C      6   4   2     2.581609386827   120.34316879     0.66338526
 H      7   6   4     1.756858761658   120.44964617   176.98302234
 C      7   6   4     2.645847893355   119.05747320   357.11997449
 C      9   7   6     2.750277876007   117.09673939   178.99174884
 H     10   9   7     1.757269266725   118.48515780   342.64471146
 C     10   9   7     4.520110401544   154.07286105   167.47004090
 H     12  10   9     1.832801421488    83.72137319   194.32498211
 H     12  10   9     1.832269981389   109.61591578    87.24309160
 C     12  10   9     2.818315971305   131.41319171   305.01103225
 C     15  12  10     2.915148166620   108.37475783   310.15488581
 H     16  15  12     1.815033040414   109.47074666   171.56344186
 H     16  15  12     1.812650643050   109.50612234    51.55671274
 H     16  15  12     1.814541543295   109.47150268   291.61594774
 C     15  12  10     2.879232777333   110.19598575   189.72371806
 H     20  15  12     1.813339665409   109.52638327   303.69575056
 H     20  15  12     1.814853419087   109.44040572   183.68438757
 H     20  15  12     1.814051399271   109.49137831    63.82813263
 C     15  12  10     4.576775514785   125.15287383    85.38794386
 H     24  15  12     1.756528253474    84.30089215   134.62866487
 C     24  15  12     2.767996130757   158.29273059   313.60063379
 C     26  24  15     2.658556031663   117.77760937   180.90795834
 H     27  26  24     1.758118893307   119.47530896   359.85273134
 C     27  26  24     2.511154330338   121.16183533   179.88590889
 C     29  27  26     2.634002816495   120.72515202   358.55727906
 H     30  29  27     1.757058386248   120.37662365   181.33560567
 C     30  29  27     2.581554041570   119.24660847     1.33461190
 H     32  30  29     1.757162391805   119.58253811   179.95938160
 C     26  24  15     2.612367448051   123.38962270     0.47070372
 N     10   9   7     2.476520879026   123.08108475   162.57214941
 N     24  15  12     2.422195856793    33.01983008   315.38747378
 O      1   2   3     2.572432212214   120.63842511     0.19671640
 O     34  26  24     2.523589135134   123.21119412     4.57083184
 Cl    18  16  15     5.374685273136   138.55834111    63.03560345
 Cl     6   4   2     3.281403386441   120.54374826   179.20444397
 Cl    29  27  26     3.304778143272   120.96052131   179.93362799
 Fe    38  34  26     3.509574777443   132.86538540   350.00266349

---------------------
BASIS SET INFORMATION
---------------------
There are 6 groups of distinct atoms

 Group   1 Type C   : 11s6p2d1f contracted to 5s3p2d1f pattern {62111/411/11/1}
 Group   2 Type H   : 5s1p contracted to 3s1p pattern {311/1}
 Group   3 Type N   : 11s6p2d1f contracted to 5s3p2d1f pattern {62111/411/11/1}
 Group   4 Type O   : 11s6p2d1f contracted to 5s3p2d1f pattern {62111/411/11/1}
 Group   5 Type Cl  : 14s9p3d1f contracted to 5s5p2d1f pattern {73211/51111/21/1}
 Group   6 Type Fe  : 17s11p7d1f contracted to 6s4p4d1f pattern {842111/6311/4111/1}

Atom   0C    basis set group =>   1
Atom   1C    basis set group =>   1
Atom   2H    basis set group =>   2
Atom   3C    basis set group =>   1
Atom   4H    basis set group =>   2
Atom   5C    basis set group =>   1
Atom   6C    basis set group =>   1
Atom   7H    basis set group =>   2
Atom   8C    basis set group =>   1
Atom   9C    basis set group =>   1
Atom  10H    basis set group =>   2
Atom  11C    basis set group =>   1
Atom  12H    basis set group =>   2
Atom  13H    basis set group =>   2
Atom  14C    basis set group =>   1
Atom  15C    basis set group =>   1
Atom  16H    basis set group =>   2
Atom  17H    basis set group =>   2
Atom  18H    basis set group =>   2
Atom  19C    basis set group =>   1
Atom  20H    basis set group =>   2
Atom  21H    basis set group =>   2
Atom  22H    basis set group =>   2
Atom  23C    basis set group =>   1
Atom  24H    basis set group =>   2
Atom  25C    basis set group =>   1
Atom  26C    basis set group =>   1
Atom  27H    basis set group =>   2
Atom  28C    basis set group =>   1
Atom  29C    basis set group =>   1
Atom  30H    basis set group =>   2
Atom  31C    basis set group =>   1
Atom  32H    basis set group =>   2
Atom  33C    basis set group =>   1
Atom  34N    basis set group =>   3
Atom  35N    basis set group =>   3
Atom  36O    basis set group =>   4
Atom  37O    basis set group =>   4
Atom  38Cl   basis set group =>   5
Atom  39Cl   basis set group =>   5
Atom  40Cl   basis set group =>   5
Atom  41Fe   basis set group =>   6
---------------------------------
AUXILIARY/J BASIS SET INFORMATION
---------------------------------
There are 6 groups of distinct atoms

 Group   1 Type C   : 12s5p4d2f1g contracted to 6s4p3d1f1g pattern {711111/2111/211/2/1}
 Group   2 Type H   : 5s2p1d contracted to 3s1p1d pattern {311/2/1}
 Group   3 Type N   : 12s5p4d2f1g contracted to 6s4p3d1f1g pattern {711111/2111/211/2/1}
 Group   4 Type O   : 12s5p4d2f1g contracted to 6s4p3d1f1g pattern {711111/2111/211/2/1}
 Group   5 Type Cl  : 14s5p5d2f1g contracted to 8s4p3d1f1g pattern {71111111/2111/311/2/1}
 Group   6 Type Fe  : 19s5p5d3f3g contracted to 8s5p5d2f3g pattern {121111111/11111/11111/21/111}

Atom   0C    basis set group =>   1
Atom   1C    basis set group =>   1
Atom   2H    basis set group =>   2
Atom   3C    basis set group =>   1
Atom   4H    basis set group =>   2
Atom   5C    basis set group =>   1
Atom   6C    basis set group =>   1
Atom   7H    basis set group =>   2
Atom   8C    basis set group =>   1
Atom   9C    basis set group =>   1
Atom  10H    basis set group =>   2
Atom  11C    basis set group =>   1
Atom  12H    basis set group =>   2
Atom  13H    basis set group =>   2
Atom  14C    basis set group =>   1
Atom  15C    basis set group =>   1
Atom  16H    basis set group =>   2
Atom  17H    basis set group =>   2
Atom  18H    basis set group =>   2
Atom  19C    basis set group =>   1
Atom  20H    basis set group =>   2
Atom  21H    basis set group =>   2
Atom  22H    basis set group =>   2
Atom  23C    basis set group =>   1
Atom  24H    basis set group =>   2
Atom  25C    basis set group =>   1
Atom  26C    basis set group =>   1
Atom  27H    basis set group =>   2
Atom  28C    basis set group =>   1
Atom  29C    basis set group =>   1
Atom  30H    basis set group =>   2
Atom  31C    basis set group =>   1
Atom  32H    basis set group =>   2
Atom  33C    basis set group =>   1
Atom  34N    basis set group =>   3
Atom  35N    basis set group =>   3
Atom  36O    basis set group =>   4
Atom  37O    basis set group =>   4
Atom  38Cl   basis set group =>   5
Atom  39Cl   basis set group =>   5
Atom  40Cl   basis set group =>   5
Atom  41Fe   basis set group =>   6


           ************************************************************
           *        Program running with 16 parallel MPI-processes    *
           *              working on a common directory               *
           ************************************************************
------------------------------------------------------------------------------
                             ORCA STARTUP CALCULATIONS
                           -- RI-GTO INTEGRALS CHOSEN --
------------------------------------------------------------------------------
------------------------------------------------------------------------------
                   ___                                                        
                  /   \      - P O W E R E D   B Y -                         
                 /     \                                                     
                 |  |  |   _    _      __       _____    __    __             
                 |  |  |  | |  | |    /  \     |  _  \  |  |  /  |          
                  \  \/   | |  | |   /    \    | | | |  |  | /  /          
                 / \  \   | |__| |  /  /\  \   | |_| |  |  |/  /          
                |  |  |   |  __  | /  /__\  \  |    /   |      \           
                |  |  |   | |  | | |   __   |  |    \   |  |\   \          
                \     /   | |  | | |  |  |  |  | |\  \  |  | \   \       
                 \___/    |_|  |_| |__|  |__|  |_| \__\ |__|  \__/        
                                                                              
                      - O R C A' S   B I G   F R I E N D -                    
                                      &                                       
                       - I N T E G R A L  F E E D E R -                       
                                                                              
 v1 FN, 2020, v2 2021, v3 2022-2024                                           
------------------------------------------------------------------------------


----------------------
SHARK INTEGRAL PACKAGE
----------------------

Number of atoms                             ...     42
Number of basis functions                   ...    934
Number of shells                            ...    360
Maximum angular momentum                    ...      3
Integral batch strategy                     ... SHARK/LIBINT Hybrid
RI-J (if used) integral strategy            ... SPLIT-RIJ (Revised 2003 algorithm where possible)
Printlevel                                  ...      1
Contraction scheme used                     ... SEGMENTED contraction
Prescreening option                         ... SCHWARTZ
   Thresh                                   ... 2.500e-11
   Tcut                                     ... 2.500e-12
   Tpresel                                  ... 2.500e-12 
Coulomb Range Separation                    ... NOT USED
Exchange Range Separation                   ... NOT USED
Multipole approximations                    ... NOT USED
Finite Nucleus Model                        ... NOT USED
CABS basis                                  ... NOT available
Auxiliary Coulomb fitting basis             ... AVAILABLE
   # of basis functions in Aux-J            ...   1496
   # of shells in Aux-J                     ...    484
   Maximum angular momentum in Aux-J        ...      4
Auxiliary J/K fitting basis                 ... NOT available
Auxiliary Correlation fitting basis         ... NOT available
Auxiliary 'external' fitting basis          ... NOT available

Checking pre-screening integrals            ... done (  0.0 sec) Dimension = 360
Check shell pair data                       ... done (  0.0 sec)
Shell pair information
Shell pair cut-off parameter TPreSel        ...   2.5e-12
Total number of shell pairs                 ...     64980
Shell pairs after pre-screening             ...     41431
Total number of primitive shell pairs       ...    214230
Primitive shell pairs kept                  ...     87068
          la=0 lb=0:  10002 shell pairs
          la=1 lb=0:  11964 shell pairs
          la=1 lb=1:   3610 shell pairs
          la=2 lb=0:   6012 shell pairs
          la=2 lb=1:   3650 shell pairs
          la=2 lb=2:    957 shell pairs
          la=3 lb=0:   2622 shell pairs
          la=3 lb=1:   1618 shell pairs
          la=3 lb=2:    809 shell pairs
          la=3 lb=3:    187 shell pairs

Calculating one electron integrals          ... done (  0.0 sec)
done (  0.2 sec)
Calculating Nuclear repulsion               ... done (  0.0 sec) ENN=   3330.927510245061 Eh

Diagonalization of the overlap matrix:
Smallest eigenvalue                        ... 6.314e-06
Time for diagonalization                   ...    0.156 sec
Threshold for overlap eigenvalues          ... 1.000e-07
Number of eigenvalues below threshold      ... 0
Time for construction of square roots      ...    0.114 sec
Total time needed                          ...    0.297 sec

-------------------
DFT GRID GENERATION
-------------------

General Integration Accuracy     IntAcc      ... 4.959
Radial Grid Type                 RadialGrid  ... OptM3 with GC (2021)
Angular Grid (max. ang.)         AngularGrid ... 6 (Lebedev-590)
Angular grid pruning method      GridPruning ... 4 (adaptive)
Weight generation scheme         WeightScheme... mBecke (2022)
Basis function cutoff            BFCut       ... 1.0000e-11
Integration weight cutoff        WCut        ... 1.0000e-14
Partially contracted basis set               ... off
Rotationally invariant grid construction     ... off
Angular grids for H and He will be reduced by one unit
Core-polarized basis detected: some atoms will have their core
                               angular grid increased.

Total number of grid points                  ...   521215
Total number of batches                      ...     8169
Average number of points per batch           ...       63
Average number of grid points per atom       ...    12410

--------------------
COSX GRID GENERATION
--------------------

GRIDX 1
-------
General Integration Accuracy     IntAcc      ... 4.020
Radial Grid Type                 RadialGrid  ... OptM3 with GC (2021)
Angular Grid (max. ang.)         AngularGrid ... 2 (Lebedev-110)
Angular grid pruning method      GridPruning ... 4 (adaptive)
Weight generation scheme         WeightScheme... mBecke (2022)
Basis function cutoff            BFCut       ... 1.0000e-11
Integration weight cutoff        WCut        ... 1.0000e-14
Partially contracted basis set               ... on
Rotationally invariant grid construction     ... off
Angular grids for H and He will be reduced by one unit
Core-polarized basis detected: some atoms will have their core
                               angular grid increased.

Total number of grid points                  ...    61347
Total number of batches                      ...      504
Average number of points per batch           ...      121
Average number of grid points per atom       ...     1461
UseSFitting                                  ... on

GRIDX 2
-------
General Integration Accuracy     IntAcc      ... 4.338
Radial Grid Type                 RadialGrid  ... OptM3 with GC (2021)
Angular Grid (max. ang.)         AngularGrid ... 3 (Lebedev-194)
Angular grid pruning method      GridPruning ... 4 (adaptive)
Weight generation scheme         WeightScheme... mBecke (2022)
Basis function cutoff            BFCut       ... 1.0000e-11
Integration weight cutoff        WCut        ... 1.0000e-14
Partially contracted basis set               ... on
Rotationally invariant grid construction     ... off
Angular grids for H and He will be reduced by one unit
Core-polarized basis detected: some atoms will have their core
                               angular grid increased.

Total number of grid points                  ...   129519
Total number of batches                      ...     1037
Average number of points per batch           ...      124
Average number of grid points per atom       ...     3084
UseSFitting                                  ... on

GRIDX 3
-------
General Integration Accuracy     IntAcc      ... 4.871
Radial Grid Type                 RadialGrid  ... OptM3 with GC (2021)
Angular Grid (max. ang.)         AngularGrid ... 4 (Lebedev-302)
Angular grid pruning method      GridPruning ... 4 (adaptive)
Weight generation scheme         WeightScheme... mBecke (2022)
Basis function cutoff            BFCut       ... 1.0000e-11
Integration weight cutoff        WCut        ... 1.0000e-14
Partially contracted basis set               ... on
Rotationally invariant grid construction     ... off
Angular grids for H and He will be reduced by one unit
Core-polarized basis detected: some atoms will have their core
                               angular grid increased.

Total number of grid points                  ...   239106
Total number of batches                      ...     1887
Average number of points per batch           ...      126
Average number of grid points per atom       ...     5693
UseSFitting                                  ... on
Initializing property integral containers    ... done (  0.0 sec)

SHARK setup successfully completed in   9.9 seconds

Maximum memory used throughout the entire STARTUP-calculation: 161.7 MB


           ************************************************************
           *        Program running with 16 parallel MPI-processes    *
           *              working on a common directory               *
           ************************************************************
-------------------------------------------------------------------------------
                                 ORCA GUESS
                   Start orbitals & Density for SCF / CASSCF
-------------------------------------------------------------------------------

------------
SCF SETTINGS
------------
Hamiltonian:
 Density Functional     Method          .... DFT(GTOs)
 Exchange Functional    Exchange        .... PBE
   PBE kappa parameter   XKappa         ....  0.804000
   PBE mue parameter    XMuePBE         ....  0.219520
 Correlation Functional Correlation     .... PBE
   PBE beta parameter  CBetaPBE         ....  0.066725
 LDA part of GGA corr.  LDAOpt          .... PW91-LDA
 Gradients option       PostSCFGGA      .... off
 Hybrid DFT is turned on
   Fraction HF Exchange ScalHFX         ....  0.250000
   Scaling of DF-GGA-X  ScalDFX         ....  0.750000
   Scaling of DF-GGA-C  ScalDFC         ....  1.000000
   Scaling of DF-LDA-C  ScalLDAC        ....  1.000000
   Perturbative correction              ....  0.000000
   NL short-range parameter             ....  6.900000
 RI-approximation to the Coulomb term is turned on
   Number of AuxJ basis functions       .... 1496
   RIJ-COSX (HFX calculated with COS-X)).... on


General Settings:
 Integral files         IntName         .... ELIRUN-S6
 Hartree-Fock type      HFTyp           .... UHF
 Total Charge           Charge          ....    0
 Multiplicity           Mult            ....    6
 Number of Electrons    NEL             ....  231
 Basis Dimension        Dim             ....  934
 Nuclear Repulsion      ENuc            ....   3330.9275102451 Eh

Convergence Acceleration:
 AO-DIIS                CNVDIIS         .... on
   Start iteration      DIISMaxIt       ....    12
   Startup error        DIISStart       ....  0.200000
   # of expansion vecs  DIISMaxEq       ....     5
   Bias factor          DIISBfac        ....   1.050
   Max. coefficient     DIISMaxC        ....  10.000
 MO-DIIS                CNVKDIIS        .... off
 Trust-Rad. Augm. Hess. CNVTRAH         .... auto
   Auto Start mean grad. ratio tolernc. ....  1.125000
   Auto Start start iteration           ....    50
   Auto Start num. interpolation iter.  ....    10
   Max. Number of Micro iterations      ....    24
   Max. Number of Macro iterations      .... Maxiter - #DIIS iter
   Number of Davidson start vectors     ....     2
   Converg. threshold    (grad. norm)   ....   1.000e-05
   Grad. Scal. Fac. for Micro threshold ....   0.100
   Minimum threshold for Micro iter.    ....   1.000e-02
   NR start threshold (gradient norm)   ....   1.000e-04
   Initial trust radius                 ....   0.400
   Minimum AH scaling param. (alpha)    ....   1.000
   Maximum AH scaling param. (alpha)    .... 1000.000
   Quad. conv. algorithm                .... NR
   White noise on init. David. guess    .... on
   Maximum white noise                  ....   0.010
   Pseudo random numbers                .... off
   Inactive MOs                         .... canonical
   Orbital update algorithm             .... Taylor
   Preconditioner                       .... Diag
   Full preconditioner red. dimension   ....   250
 SOSCF                  CNVSOSCF        .... on
   Start iteration      SOSCFMaxIt      ....   150
   Startup grad/error   SOSCFStart      ....  0.003300
   Hessian update       SOSCFHessUp     .... L-BFGS
 Level Shifting         CNVShift        .... on
   Level shift para.    LevelShift      ....    0.2500
   Turn off err/grad.   ShiftErr        ....    0.0010
 Zerner damping         CNVZerner       .... off
 Static damping         CNVDamp         .... on
   Fraction old density DampFac         ....    0.7000
   Max. Damping (<1)    DampMax         ....    0.9800
   Min. Damping (>=0)   DampMin         ....    0.0000
   Turn off err/grad.   DampErr         ....    0.1000

SCF Procedure:
 Maximum # iterations   MaxIter         ....   125
 SCF integral mode      SCFMode         .... Direct
   Integral package                     .... SHARK and LIBINT hybrid scheme
 Reset frequency        DirectResetFreq ....    20
 Integral Threshold     Thresh          ....  2.500e-11 Eh
 Primitive CutOff       TCut            ....  2.500e-12 Eh

Convergence Tolerance:
 Convergence Check Mode ConvCheckMode   .... Total+1el-Energy
 Convergence forced     ConvForced      .... 0
 Energy Change          TolE            ....  1.000e-08 Eh
 1-El. energy change                    ....  1.000e-05 Eh
 Orbital Gradient       TolG            ....  1.000e-05
 Orbital Rotation angle TolX            ....  1.000e-05
 DIIS Error             TolErr          ....  5.000e-07

------------------------------
INITIAL GUESS: MODEL POTENTIAL
------------------------------
Loading Hartree-Fock densities                     ... done
Calculating cut-offs                               ... done
Initializing the effective Hamiltonian             ... done
Setting up the integral package (SHARK)            ... done
done (   0.3 sec)
Making the grid                                    ... done (   0.3 sec)
Mapping shells                                     ... done
Starting the XC term evaluation                    ... done (   0.2 sec)
  promolecular density results
     # of electrons  =    230.990053051
     EX              =   -263.054745722
     EC              =     -8.436817682
     EX+EC           =   -271.491563404
Transforming the Hamiltonian                       ... done (   0.1 sec)
done (   0.2 sec)
Back transforming the eigenvectors                 ... done (   0.1 sec)
done
                      ------------------
                      INITIAL GUESS DONE (   1.4 sec)
                      ------------------
             **** ENERGY FILE WAS UPDATED (ELIRUN-S6.en.tmp) ****
Finished Guess after   1.9 sec
Maximum memory used throughout the entire GUESS-calculation: 80.8 MB


           ************************************************************
           *        Program running with 16 parallel MPI-processes    *
           *              working on a common directory               *
           ************************************************************

-------------------------------------------------------------------------------------------
                                      ORCA LEAN-SCF
                              memory conserving SCF solver
-------------------------------------------------------------------------------------------

----------------------------------------D-I-I-S--------------------------------------------
Iteration    Energy (Eh)           Delta-E    RMSDP     MaxDP     DIISErr   Damp  Time(sec)
-------------------------------------------------------------------------------------------
               ***  Starting incremental Fock matrix formation  ***
    1    -3596.9178035301838463     0.00e+00  1.60e-03  2.64e-01  3.35e-01  0.700  21.3
Warning: op=0 Small HOMO/LUMO gap (  -0.437) - skipping pre-diagonalization
         LevelShift set to 0.537 Eh
         Will do a full diagonalization
    2    -3597.2551122980494256    -3.37e-01  8.80e-04  1.01e-01  1.75e-01  0.700  13.4
                               ***Turning on AO-DIIS***
    3    -3597.6029235290825454    -3.48e-01  4.68e-04  5.65e-02  4.62e-02  0.700  11.4
    4    -3597.7432744830202864    -1.40e-01  8.65e-04  1.06e-01  9.16e-02  0.000  10.9
    5    -3598.0175784156426744    -2.74e-01  3.60e-04  4.85e-02  1.78e-01  0.000  11.3
    6    -3598.1025156261102893    -8.49e-02  1.38e-04  1.71e-02  1.38e-01  0.700  10.4
    7    -3598.1503840860650598    -4.79e-02  1.50e-04  1.54e-02  1.02e-01  0.700  10.2
    8    -3598.1880341224677977    -3.77e-02  1.32e-04  1.62e-02  7.16e-02  0.700  10.0
    9    -3598.2139040144884348    -2.59e-02  3.87e-04  4.81e-02  4.91e-02  0.000   9.8
   10    -3598.2637261926438441    -4.98e-02  9.12e-05  6.57e-03  8.68e-03  0.000  10.7
   11    -3598.2709181040418116    -7.19e-03  8.40e-05  5.20e-03  5.36e-03  0.000  10.0
   12    -3598.2764335119136376    -5.52e-03  7.87e-05  4.69e-03  4.76e-03  0.000  10.1
   13    -3598.2804347531937310    -4.00e-03  5.90e-05  4.17e-03  3.65e-03  0.000   9.9
                              *** Initializing SOSCF ***
---------------------------------------S-O-S-C-F--------------------------------------
Iteration    Energy (Eh)           Delta-E    RMSDP     MaxDP     MaxGrad    Time(sec)
--------------------------------------------------------------------------------------
   14    -3598.2828402235281828    -2.41e-03  5.73e-05  5.77e-03  2.80e-03    10.7
               *** Restarting incremental Fock matrix formation ***
   15    -3598.2843863143398266    -1.55e-03  1.23e-04  6.23e-03  1.02e-02    20.8
   16    -3598.2863474523655896    -1.96e-03  1.95e-04  2.07e-02  3.53e-03    16.3
   17    -3598.2850566947599873     1.29e-03  1.23e-04  1.37e-02  6.95e-03    16.2
   18    -3598.2869801133892906    -1.92e-03  3.95e-05  2.40e-03  8.50e-04    16.1
   19    -3598.2868431665056050     1.37e-04  2.64e-05  2.04e-03  1.38e-03    14.6
   20    -3598.2870361302184392    -1.93e-04  7.49e-06  5.90e-04  2.04e-04    14.1
   21    -3598.2870332150068862     2.92e-06  3.83e-06  3.34e-04  2.87e-04    12.5
   22    -3598.2870398043596651    -6.59e-06  2.49e-06  1.73e-04  4.41e-05    11.6
   23    -3598.2870398026279872     1.73e-09  1.56e-06  1.55e-04  4.94e-05    10.7
                 **** Energy Check signals convergence ****

               *****************************************************
               *                     SUCCESS                       *
               *           SCF CONVERGED AFTER  23 CYCLES          *
               *****************************************************

 done (   27.653 sec)
Old exchange energy                            :    -66.726159428 Eh
New exchange energy                            :    -66.726153437 Eh
Exchange energy change after final integration :      0.000005991 Eh
Total energy after final integration           :  -3598.287033811 Eh
             **** ENERGY FILE WAS UPDATED (ELIRUN-S6.en.tmp) ****

----------------
TOTAL SCF ENERGY
----------------

Total Energy       :      -3598.28703381122250 Eh          -97914.36806 eV

Components:
Nuclear Repulsion  :       3330.92751024506106 Eh           90639.14556 eV
Electronic Energy  :      -6929.21455004768904 Eh         -188553.51378 eV
One Electron Energy:     -11583.36112166822022 Eh         -315199.28054 eV
Two Electron Energy:       4654.14657162053118 Eh          126645.76676 eV

Virial components:
Potential Energy   :      -7193.27558689414309 Eh         -195738.97990 eV
Kinetic Energy     :       3594.98855308292059 Eh           97824.61184 eV
Virial Ratio       :          2.00091752190017

DFT components:
N(Alpha)           :      117.999993174779 electrons
N(Beta)            :      112.999992576457 electrons
N(Total)           :      230.999985751236 electrons
E(X)               :     -199.512374834824 Eh       
E(C)               :       -8.394816339695 Eh       
E(XC)              :     -207.907191174520 Eh       

---------------
SCF CONVERGENCE
---------------

  Last Energy change         ...   -1.7317e-09  Tolerance :   1.0000e-08
  Last MAX-Density change    ...    1.5520e-04  Tolerance :   1.0000e-07
  Last RMS-Density change    ...    1.5645e-06  Tolerance :   5.0000e-09
  Last DIIS Error            ...    2.8034e-03  Tolerance :   5.0000e-07
  Last Orbital Gradient      ...    4.9422e-05  Tolerance :   1.0000e-05
  Last Orbital Rotation      ...    1.7468e-04  Tolerance :   1.0000e-05


----------------------
UHF SPIN CONTAMINATION
----------------------

Warning: in a DFT calculation there is little theoretical justification to 
         calculate <S**2> as in Hartree-Fock theory. We will do it anyways
         but you should keep in mind that the values have only limited relevance

Expectation value of <S**2>     :     8.764244
Ideal value S*(S+1) for S=2.5   :     8.750000
Deviation                       :     0.014244

----------------
ORBITAL ENERGIES
----------------
                 SPIN UP ORBITALS
  NO   OCC          E(Eh)            E(eV) 
   0   1.0000    -256.456511     -6978.5364 
   1   1.0000    -101.708361     -2767.6252 
   2   1.0000    -101.705451     -2767.5460 
   3   1.0000    -101.635667     -2765.6471 
   4   1.0000     -30.280620      -823.9775 
   5   1.0000     -26.099951      -710.2158 
   6   1.0000     -26.098233      -710.1690 
   7   1.0000     -26.096457      -710.1207 
   8   1.0000     -19.204212      -522.5732 
   9   1.0000     -19.192896      -522.2653 
  10   1.0000     -14.433117      -392.7451 
  11   1.0000     -14.430390      -392.6709 
  12   1.0000     -10.297540      -280.2103 
  13   1.0000     -10.297276      -280.2031 
  14   1.0000     -10.296632      -280.1856 
  15   1.0000     -10.295733      -280.1611 
  16   1.0000     -10.291246      -280.0390 
  17   1.0000     -10.284328      -279.8508 
  18   1.0000     -10.282103      -279.7902 
  19   1.0000     -10.253470      -279.0111 
  20   1.0000     -10.252357      -278.9808 
  21   1.0000     -10.249881      -278.9135 
  22   1.0000     -10.232396      -278.4377 
  23   1.0000     -10.232100      -278.4296 
  24   1.0000     -10.231810      -278.4217 
  25   1.0000     -10.226480      -278.2767 
  26   1.0000     -10.216720      -278.0111 
  27   1.0000     -10.209197      -277.8064 
  28   1.0000     -10.205616      -277.7089 
  29   1.0000     -10.186817      -277.1974 
  30   1.0000      -9.533927      -259.4313 
  31   1.0000      -9.531177      -259.3565 
  32   1.0000      -9.462258      -257.4811 
  33   1.0000      -7.267976      -197.7717 
  34   1.0000      -7.265197      -197.6961 
  35   1.0000      -7.259872      -197.5512 
  36   1.0000      -7.259697      -197.5464 
  37   1.0000      -7.257125      -197.4764 
  38   1.0000      -7.256945      -197.4715 
  39   1.0000      -7.193476      -195.7444 
  40   1.0000      -7.190527      -195.6642 
  41   1.0000      -7.190075      -195.6519 
  42   1.0000      -3.706304      -100.8537 
  43   1.0000      -2.470491       -67.2255 
  44   1.0000      -2.467341       -67.1398 
  45   1.0000      -2.464228       -67.0551 
  46   1.0000      -1.050872       -28.5957 
  47   1.0000      -1.029743       -28.0207 
  48   1.0000      -1.010971       -27.5099 
  49   1.0000      -0.985281       -26.8109 
  50   1.0000      -0.931475       -25.3467 
  51   1.0000      -0.927013       -25.2253 
  52   1.0000      -0.883885       -24.0517 
  53   1.0000      -0.865078       -23.5400 
  54   1.0000      -0.860789       -23.4233 
  55   1.0000      -0.824674       -22.4405 
  56   1.0000      -0.817976       -22.2583 
  57   1.0000      -0.786718       -21.4077 
  58   1.0000      -0.778234       -21.1768 
  59   1.0000      -0.773167       -21.0389 
  60   1.0000      -0.762047       -20.7364 
  61   1.0000      -0.749356       -20.3910 
  62   1.0000      -0.717018       -19.5111 
  63   1.0000      -0.695983       -18.9387 
  64   1.0000      -0.674768       -18.3614 
  65   1.0000      -0.669015       -18.2048 
  66   1.0000      -0.645751       -17.5718 
  67   1.0000      -0.620181       -16.8760 
  68   1.0000      -0.613083       -16.6828 
  69   1.0000      -0.578793       -15.7498 
  70   1.0000      -0.570869       -15.5341 
  71   1.0000      -0.557329       -15.1657 
  72   1.0000      -0.552139       -15.0245 
  73   1.0000      -0.544652       -14.8207 
  74   1.0000      -0.526604       -14.3296 
  75   1.0000      -0.516645       -14.0586 
  76   1.0000      -0.512602       -13.9486 
  77   1.0000      -0.510469       -13.8906 
  78   1.0000      -0.500313       -13.6142 
  79   1.0000      -0.496390       -13.5075 
  80   1.0000      -0.490339       -13.3428 
  81   1.0000      -0.483470       -13.1559 
  82   1.0000      -0.481090       -13.0911 
  83   1.0000      -0.477730       -12.9997 
  84   1.0000      -0.475826       -12.9479 
  85   1.0000      -0.469996       -12.7892 
  86   1.0000      -0.464495       -12.6396 
  87   1.0000      -0.455324       -12.3900 
  88   1.0000      -0.450271       -12.2525 
  89   1.0000      -0.445527       -12.1234 
  90   1.0000      -0.441791       -12.0218 
  91   1.0000      -0.437133       -11.8950 
  92   1.0000      -0.425600       -11.5812 
  93   1.0000      -0.422435       -11.4950 
  94   1.0000      -0.413085       -11.2406 
  95   1.0000      -0.412301       -11.2193 
  96   1.0000      -0.409217       -11.1354 
  97   1.0000      -0.397801       -10.8247 
  98   1.0000      -0.395215       -10.7543 
  99   1.0000      -0.388989       -10.5849 
 100   1.0000      -0.387332       -10.5398 
 101   1.0000      -0.383312       -10.4304 
 102   1.0000      -0.370075       -10.0703 
 103   1.0000      -0.358135        -9.7454 
 104   1.0000      -0.338520        -9.2116 
 105   1.0000      -0.332246        -9.0409 
 106   1.0000      -0.330357        -8.9895 
 107   1.0000      -0.327156        -8.9024 
 108   1.0000      -0.319487        -8.6937 
 109   1.0000      -0.295295        -8.0354 
 110   1.0000      -0.292450        -7.9580 
 111   1.0000      -0.286173        -7.7872 
 112   1.0000      -0.283092        -7.7033 
 113   1.0000      -0.281484        -7.6596 
 114   1.0000      -0.280634        -7.6364 
 115   1.0000      -0.257508        -7.0071 
 116   1.0000      -0.235780        -6.4159 
 117   1.0000      -0.229135        -6.2351 
 118   0.0000      -0.081874        -2.2279 
 119   0.0000      -0.073655        -2.0043 
 120   0.0000      -0.011691        -0.3181 
 121   0.0000      -0.007835        -0.2132 
 122   0.0000       0.015904         0.4328 
 123   0.0000       0.020388         0.5548 
 124   0.0000       0.026545         0.7223 
 125   0.0000       0.036045         0.9808 
 126   0.0000       0.042669         1.1611 
 127   0.0000       0.050400         1.3715 
 128   0.0000       0.056205         1.5294 

                 SPIN DOWN ORBITALS
  NO   OCC          E(Eh)            E(eV) 
   0   1.0000    -256.454912     -6978.4929 
   1   1.0000    -101.708347     -2767.6248 
   2   1.0000    -101.705436     -2767.5456 
   3   1.0000    -101.633548     -2765.5894 
   4   1.0000     -30.184987      -821.3752 
   5   1.0000     -26.019857      -708.0363 
   6   1.0000     -26.017175      -707.9633 
   7   1.0000     -26.016163      -707.9358 
   8   1.0000     -19.198089      -522.4065 
   9   1.0000     -19.186715      -522.0971 
  10   1.0000     -14.430292      -392.6682 
  11   1.0000     -14.427428      -392.5903 
  12   1.0000     -10.297500      -280.2092 
  13   1.0000     -10.297387      -280.2061 
  14   1.0000     -10.296781      -280.1897 
  15   1.0000     -10.295741      -280.1614 
  16   1.0000     -10.291345      -280.0417 
  17   1.0000     -10.284050      -279.8432 
  18   1.0000     -10.281843      -279.7832 
  19   1.0000     -10.253470      -279.0111 
  20   1.0000     -10.251908      -278.9686 
  21   1.0000     -10.249456      -278.9019 
  22   1.0000     -10.232549      -278.4418 
  23   1.0000     -10.232229      -278.4331 
  24   1.0000     -10.231921      -278.4247 
  25   1.0000     -10.226562      -278.2789 
  26   1.0000     -10.216294      -277.9995 
  27   1.0000     -10.208834      -277.7965 
  28   1.0000     -10.205546      -277.7070 
  29   1.0000     -10.186816      -277.1973 
  30   1.0000      -9.533914      -259.4310 
  31   1.0000      -9.531163      -259.3561 
  32   1.0000      -9.460343      -257.4290 
  33   1.0000      -7.267980      -197.7718 
  34   1.0000      -7.265199      -197.6961 
  35   1.0000      -7.259814      -197.5496 
  36   1.0000      -7.259689      -197.5462 
  37   1.0000      -7.257068      -197.4749 
  38   1.0000      -7.256936      -197.4713 
  39   1.0000      -7.189600      -195.6390 
  40   1.0000      -7.187799      -195.5899 
  41   1.0000      -7.187711      -195.5876 
  42   1.0000      -3.478869       -94.6648 
  43   1.0000      -2.227308       -60.6081 
  44   1.0000      -2.222056       -60.4652 
  45   1.0000      -2.220056       -60.4108 
  46   1.0000      -1.039393       -28.2833 
  47   1.0000      -1.019567       -27.7438 
  48   1.0000      -1.006008       -27.3749 
  49   1.0000      -0.980828       -26.6897 
  50   1.0000      -0.930660       -25.3246 
  51   1.0000      -0.926161       -25.2021 
  52   1.0000      -0.883063       -24.0294 
  53   1.0000      -0.863852       -23.5066 
  54   1.0000      -0.859696       -23.3935 
  55   1.0000      -0.824110       -22.4252 
  56   1.0000      -0.817176       -22.2365 
  57   1.0000      -0.786217       -21.3941 
  58   1.0000      -0.776677       -21.1345 
  59   1.0000      -0.761697       -20.7268 
  60   1.0000      -0.759305       -20.6617 
  61   1.0000      -0.747542       -20.3417 
  62   1.0000      -0.715179       -19.4610 
  63   1.0000      -0.694044       -18.8859 
  64   1.0000      -0.673606       -18.3298 
  65   1.0000      -0.667682       -18.1686 
  66   1.0000      -0.643456       -17.5093 
  67   1.0000      -0.617707       -16.8087 
  68   1.0000      -0.610282       -16.6066 
  69   1.0000      -0.576285       -15.6815 
  70   1.0000      -0.559483       -15.2243 
  71   1.0000      -0.553832       -15.0705 
  72   1.0000      -0.544476       -14.8159 
  73   1.0000      -0.540615       -14.7109 
  74   1.0000      -0.520508       -14.1637 
  75   1.0000      -0.514308       -13.9950 
  76   1.0000      -0.509486       -13.8638 
  77   1.0000      -0.507119       -13.7994 
  78   1.0000      -0.496596       -13.5131 
  79   1.0000      -0.484041       -13.1714 
  80   1.0000      -0.478221       -13.0131 
  81   1.0000      -0.475776       -12.9465 
  82   1.0000      -0.468599       -12.7512 
  83   1.0000      -0.458595       -12.4790 
  84   1.0000      -0.458297       -12.4709 
  85   1.0000      -0.448317       -12.1993 
[...]
 80:   1226.82   0.031245  157.90  0.007948  ( 0.063716 -0.028578  0.055420)
 81:   1234.53   0.002120   10.71  0.000536  (-0.006979  0.016160 -0.015035)
 82:   1256.04   0.002974   15.03  0.000739  (-0.007311 -0.022122  0.014004)
 83:   1266.22   0.001442    7.28  0.000355  ( 0.003929 -0.012687  0.013374)
 84:   1267.90   0.005547   28.03  0.001365  ( 0.018762  0.031804  0.001343)
 85:   1297.72   0.002724   13.77  0.000655  ( 0.013454 -0.006067  0.020912)
 86:   1355.10   0.022167  112.02  0.005105  ( 0.043602  0.056587 -0.001254)
 87:   1365.11   0.022977  116.12  0.005253  (-0.035628 -0.062705  0.007166)
 88:   1375.88   0.001721    8.70  0.000390  (-0.018449  0.004206  0.005673)
 89:   1383.16   0.013941   70.45  0.003145  ( 0.037196  0.041966  0.000775)
 90:   1387.08   0.011284   57.02  0.002539  (-0.026666 -0.042748 -0.000401)
 91:   1395.03   0.001362    6.88  0.000305  (-0.012121  0.010917  0.006210)
 92:   1411.40   0.005121   25.88  0.001132  (-0.020635 -0.019182 -0.018396)
 93:   1417.93   0.009958   50.33  0.002192  ( 0.015115  0.043180 -0.009935)
 94:   1426.37   0.010127   51.18  0.002216  ( 0.022176  0.039089 -0.013998)
 95:   1463.89   0.003036   15.34  0.000647  ( 0.014708  0.020689  0.001663)
 96:   1468.69   0.011795   59.61  0.002506  ( 0.024788  0.043305 -0.004060)
 97:   1473.18   0.005609   28.34  0.001188  ( 0.023540  0.023503 -0.009032)
 98:   1476.31   0.000379    1.91  0.000080  (-0.008224 -0.003310 -0.001225)
 99:   1482.23   0.000376    1.90  0.000079  ( 0.003388  0.006679  0.004795)
100:   1495.18   0.003431   17.34  0.000716  (-0.016739 -0.019608 -0.007164)
101:   1498.49   0.052544  265.53  0.010942  (-0.066213 -0.079492  0.015463)
102:   1503.72   0.000567    2.86  0.000118  ( 0.003485  0.006281 -0.008123)
103:   1510.24   0.024233  122.47  0.005007  (-0.047617  0.036155 -0.037853)
104:   1579.66   0.048415  244.67  0.009564  (-0.023987 -0.090964  0.026732)
105:   1585.12   0.029909  151.15  0.005888  (-0.060435 -0.024979 -0.040147)
106:   1662.76   0.000976    4.93  0.000183  (-0.008459 -0.008981 -0.005558)
107:   1664.93   0.002432   12.29  0.000456  (-0.015438 -0.003267 -0.014382)
108:   1692.13   0.221557  1119.66  0.040860  ( 0.098341  0.175559 -0.019177)
109:   1705.02   0.030014  151.68  0.005493  ( 0.045324 -0.006144  0.058321)
110:   3020.01   0.006089   30.77  0.000629  (-0.021357  0.012907 -0.002543)
111:   3050.72   0.001748    8.83  0.000179  (-0.003469  0.011279  0.006287)
112:   3055.20   0.004276   21.61  0.000437  ( 0.010253 -0.006464  0.017024)
113:   3066.11   0.005209   26.32  0.000530  ( 0.022152  0.001349  0.006130)
114:   3069.41   0.004943   24.98  0.000503  (-0.013918 -0.006126 -0.016470)
115:   3103.15   0.003649   18.44  0.000367  (-0.003823  0.016055 -0.009725)
116:   3128.15   0.000451    2.28  0.000045  (-0.000159 -0.002772 -0.006103)
117:   3130.98   0.003169   16.01  0.000316  ( 0.006019  0.002886  0.016471)
118:   3133.85   0.005607   28.34  0.000558  (-0.021268 -0.009974  0.002553)
119:   3154.10   0.000817    4.13  0.000081  (-0.000757 -0.007628  0.004693)
120:   3197.14   0.000610    3.08  0.000060  ( 0.001700  0.007171 -0.002279)
121:   3197.85   0.000603    3.04  0.000059  (-0.006296 -0.004319 -0.000710)
122:   3205.67   0.000178    0.90  0.000017  ( 0.001401  0.003760 -0.001105)
123:   3206.31   0.000176    0.89  0.000017  ( 0.002643  0.003158  0.000434)
124:   3222.21   0.000218    1.10  0.000021  (-0.002641  0.000589 -0.003719)
125:   3222.56   0.000226    1.14  0.000022  (-0.002432  0.002301 -0.003262)

* The epsilon (eps) is given for a Dirac delta lineshape.
** The dipole moment derivative (T) already includes vibrational overlap.

The first frequency considered to be a vibration is 6
The total number of vibrations considered is 120


--------------------------
THERMOCHEMISTRY AT 298.15K
--------------------------

Temperature         ...   298.15 K
Pressure            ...     1.00 atm
Total Mass          ...   454.55 AMU
Quasi RRHO          ...     True
Cut-Off Frequency   ...     1.00 cm^-1

Throughout the following assumptions are being made:
  (1) The electronic state is orbitally nondegenerate
      but the spin degeneracy is treated
  (2) There are no thermally accessible electronically excited states
  (3) Hindered rotations indicated by low frequency modes are not
      treated as such but are treated as vibrations and this may
      cause some error
  (4) All equations used are the standard statistical mechanics
      equations for an ideal gas
  (5) All vibrations are strictly harmonic

freq.      16.29  E(vib)   ...       0.57 
freq.      28.86  E(vib)   ...       0.55 
freq.      45.25  E(vib)   ...       0.53 
freq.      61.74  E(vib)   ...       0.51 
freq.      75.42  E(vib)   ...       0.49 
freq.      83.03  E(vib)   ...       0.48 
freq.     100.52  E(vib)   ...       0.46 
freq.     105.32  E(vib)   ...       0.45 
freq.     112.42  E(vib)   ...       0.45 
freq.     133.88  E(vib)   ...       0.42 
freq.     144.00  E(vib)   ...       0.41 
freq.     167.75  E(vib)   ...       0.38 
freq.     185.50  E(vib)   ...       0.37 
freq.     205.55  E(vib)   ...       0.35 
freq.     224.53  E(vib)   ...       0.33 
freq.     235.07  E(vib)   ...       0.32 
freq.     256.04  E(vib)   ...       0.30 
freq.     269.13  E(vib)   ...       0.29 
freq.     273.70  E(vib)   ...       0.28 
freq.     280.63  E(vib)   ...       0.28 
freq.     299.61  E(vib)   ...       0.26 
freq.     301.91  E(vib)   ...       0.26 
freq.     315.63  E(vib)   ...       0.25 
freq.     320.64  E(vib)   ...       0.25 
freq.     330.30  E(vib)   ...       0.24 
freq.     340.02  E(vib)   ...       0.23 
freq.     354.42  E(vib)   ...       0.22 
freq.     358.29  E(vib)   ...       0.22 
freq.     379.65  E(vib)   ...       0.21 
freq.     391.71  E(vib)   ...       0.20 
freq.     405.36  E(vib)   ...       0.19 
freq.     434.45  E(vib)   ...       0.17 
freq.     444.25  E(vib)   ...       0.17 
freq.     457.81  E(vib)   ...       0.16 
freq.     469.56  E(vib)   ...       0.16 
freq.     489.61  E(vib)   ...       0.15 
freq.     502.33  E(vib)   ...       0.14 
freq.     521.23  E(vib)   ...       0.13 
freq.     540.73  E(vib)   ...       0.12 
freq.     557.44  E(vib)   ...       0.12 
freq.     570.24  E(vib)   ...       0.11 
freq.     577.45  E(vib)   ...       0.11 
freq.     618.76  E(vib)   ...       0.09 
freq.     667.23  E(vib)   ...       0.08 
freq.     672.17  E(vib)   ...       0.08 
freq.     710.27  E(vib)   ...       0.07 
freq.     741.64  E(vib)   ...       0.06 
freq.     764.96  E(vib)   ...       0.06 
freq.     765.55  E(vib)   ...       0.06 
freq.     823.65  E(vib)   ...       0.05 
freq.     835.24  E(vib)   ...       0.04 
freq.     846.25  E(vib)   ...       0.04 
freq.     861.94  E(vib)   ...       0.04 
freq.     862.89  E(vib)   ...       0.04 
freq.     900.50  E(vib)   ...       0.03 
freq.     902.00  E(vib)   ...       0.03 
freq.     927.95  E(vib)   ...       0.03 
freq.     930.77  E(vib)   ...       0.03 
freq.     948.30  E(vib)   ...       0.03 
freq.     949.69  E(vib)   ...       0.03 
freq.     962.82  E(vib)   ...       0.03 
freq.     984.78  E(vib)   ...       0.02 
freq.     987.55  E(vib)   ...       0.02 
freq.     992.38  E(vib)   ...       0.02 
freq.    1007.65  E(vib)   ...       0.02 
freq.    1014.79  E(vib)   ...       0.02 
freq.    1040.76  E(vib)   ...       0.02 
freq.    1113.36  E(vib)   ...       0.01 
freq.    1121.47  E(vib)   ...       0.01 
freq.    1121.85  E(vib)   ...       0.01 
freq.    1156.21  E(vib)   ...       0.01 
freq.    1158.18  E(vib)   ...       0.01 
freq.    1185.28  E(vib)   ...       0.01 
freq.    1224.33  E(vib)   ...       0.01 
freq.    1226.82  E(vib)   ...       0.01 
freq.    1234.53  E(vib)   ...       0.01 
freq.    1256.04  E(vib)   ...       0.01 
freq.    1266.22  E(vib)   ...       0.01 
freq.    1267.90  E(vib)   ...       0.01 
freq.    1297.72  E(vib)   ...       0.01 
freq.    1355.10  E(vib)   ...       0.01 
freq.    1365.11  E(vib)   ...       0.01 
freq.    1375.88  E(vib)   ...       0.01 
freq.    1383.16  E(vib)   ...       0.00 
freq.    1387.08  E(vib)   ...       0.00 
freq.    1395.03  E(vib)   ...       0.00 
freq.    1411.40  E(vib)   ...       0.00 
freq.    1417.93  E(vib)   ...       0.00 
freq.    1426.37  E(vib)   ...       0.00 
freq.    1463.89  E(vib)   ...       0.00 
freq.    1468.69  E(vib)   ...       0.00 
freq.    1473.18  E(vib)   ...       0.00 
freq.    1476.31  E(vib)   ...       0.00 
freq.    1482.23  E(vib)   ...       0.00 
freq.    1495.18  E(vib)   ...       0.00 
freq.    1498.49  E(vib)   ...       0.00 
freq.    1503.72  E(vib)   ...       0.00 
freq.    1510.24  E(vib)   ...       0.00 
freq.    1579.66  E(vib)   ...       0.00 
freq.    1585.12  E(vib)   ...       0.00 
freq.    1662.76  E(vib)   ...       0.00 
freq.    1664.93  E(vib)   ...       0.00 
freq.    1692.13  E(vib)   ...       0.00 
freq.    1705.02  E(vib)   ...       0.00 
freq.    3020.01  E(vib)   ...       0.00 
freq.    3050.72  E(vib)   ...       0.00 
freq.    3055.20  E(vib)   ...       0.00 
freq.    3066.11  E(vib)   ...       0.00 
freq.    3069.41  E(vib)   ...       0.00 
freq.    3103.15  E(vib)   ...       0.00 
freq.    3128.15  E(vib)   ...       0.00 
freq.    3130.98  E(vib)   ...       0.00 
freq.    3133.85  E(vib)   ...       0.00 
freq.    3154.10  E(vib)   ...       0.00 
freq.    3197.14  E(vib)   ...       0.00 
freq.    3197.85  E(vib)   ...       0.00 
freq.    3205.67  E(vib)   ...       0.00 
freq.    3206.31  E(vib)   ...       0.00 
freq.    3222.21  E(vib)   ...       0.00 
freq.    3222.56  E(vib)   ...       0.00 

------------
INNER ENERGY
------------

The inner energy is: U= E(el) + E(ZPE) + E(vib) + E(rot) + E(trans)
    E(el)   - is the total energy from the electronic structure calculation
              = E(kin-el) + E(nuc-el) + E(el-el) + E(nuc-nuc)
    E(ZPE)  - the the zero temperature vibrational energy from the frequency calculation
    E(vib)  - the the finite temperature correction to E(ZPE) due to population
              of excited vibrational states
    E(rot)  - is the rotational thermal energy
    E(trans)- is the translational thermal energy

Summary of contributions to the inner energy U:
Electronic energy                ...  -3598.58644127 Eh
Zero point energy                ...      0.30905550 Eh     193.93 kcal/mol
Thermal vibrational correction   ...      0.02162621 Eh      13.57 kcal/mol
Thermal rotational correction    ...      0.00141627 Eh       0.89 kcal/mol
Thermal translational correction ...      0.00141627 Eh       0.89 kcal/mol
-----------------------------------------------------------------------
Total thermal energy                  -3598.25292702 Eh


Summary of corrections to the electronic energy:
(perhaps to be used in another calculation)
Total thermal correction                  0.02445875 Eh      15.35 kcal/mol
Non-thermal (ZPE) correction              0.30905550 Eh     193.93 kcal/mol
-----------------------------------------------------------------------
Total correction                          0.33351425 Eh     209.28 kcal/mol


--------
ENTHALPY
--------

The enthalpy is H = U + kB*T
                kB is Boltzmann's constant
Total thermal energy              ...  -3598.25292702 Eh 
Thermal Enthalpy correction       ...      0.00094421 Eh       0.59 kcal/mol
-----------------------------------------------------------------------
Total Enthalpy                    ...  -3598.25198281 Eh


Note: Only C1 symmetry has been detected, increase convergence thresholds 
      if your molecule has a higher symmetry. Symmetry factor of 1.0 is   
      used for the rotational entropy correction. 
 

Note: Rotational entropy computed according to Herzberg 
Infrared and Raman Spectra, Chapter V,1, Van Nostrand Reinhold, 1945 
Point Group:  C1, Symmetry Number:   1  
Rotational constants in cm-1:     0.011723     0.002384     0.002137 

Vibrational entropy computed according to the QRRHO of S. Grimme
Chem.Eur.J. 2012 18 9955 using a reference frequency of 100.0 cm-1


-------
ENTROPY
-------

The entropy contributions are T*S = T*(S(el)+S(vib)+S(rot)+S(trans))
     S(el)   - electronic entropy
     S(vib)  - vibrational entropy
     S(rot)  - rotational entropy
     S(trans)- translational entropy
The entropies will be listed as multiplied by the temperature to get
units of energy

Electronic entropy                ...      0.00169175 Eh      1.06 kcal/mol
Vibrational entropy               ...      0.03805552 Eh     23.88 kcal/mol
Rotational entropy                ...      0.01736319 Eh     10.90 kcal/mol
Translational entropy             ...      0.02101566 Eh     13.19 kcal/mol
-----------------------------------------------------------------------
Final entropy term                ...      0.07812612 Eh     49.02 kcal/mol

In case the symmetry of your molecule has not been determined correctly
or in case you have a reason to use a different symmetry number we print 
out the resulting rotational entropy values for sn=1,12:

 non-linear molecules -----------------------------------
|  sn= 1 | S(rot)=       0.01736319 Eh     10.90 kcal/mol|
|  sn= 2 | S(rot)=       0.01670873 Eh     10.48 kcal/mol|
|  sn= 3 | S(rot)=       0.01632590 Eh     10.24 kcal/mol|
|  sn= 4 | S(rot)=       0.01605427 Eh     10.07 kcal/mol|
|  sn= 5 | S(rot)=       0.01584359 Eh      9.94 kcal/mol|
|  sn= 6 | S(rot)=       0.01567144 Eh      9.83 kcal/mol|
|  sn= 7 | S(rot)=       0.01552590 Eh      9.74 kcal/mol|
|  sn= 8 | S(rot)=       0.01539982 Eh      9.66 kcal/mol|
|  sn= 9 | S(rot)=       0.01528861 Eh      9.59 kcal/mol|
|  sn=10 | S(rot)=       0.01518913 Eh      9.53 kcal/mol|
|  sn=11 | S(rot)=       0.01509914 Eh      9.47 kcal/mol|
|  sn=12 | S(rot)=       0.01501699 Eh      9.42 kcal/mol|
 linear molecules ---------------------------------------
|  Dinfh | S(rot)=       0.01113082 Eh      6.98 kcal/mol|
|  Cinfv | S(rot)=       0.01178528 Eh      7.40 kcal/mol|
 --------------------------------------------------------


-------------------
GIBBS FREE ENERGY
-------------------

The Gibbs free energy is G = H - T*S

Total enthalpy                    ...  -3598.25198281 Eh 
Total entropy correction          ...     -0.07812612 Eh    -49.02 kcal/mol
-----------------------------------------------------------------------
Final Gibbs free energy         ...  -3598.33010893 Eh

For completeness - the Gibbs free energy minus the electronic energy
G-E(el)                           ...      0.25633234 Eh    160.85 kcal/mol


Maximum memory used throughout the entire PROP-calculation: 1102.0 MB

--------------------------------
SUGGESTED CITATIONS FOR THIS RUN
--------------------------------

Below you find a list of papers that are relevant to this ORCA run
We neither can nor want to force you to cite these papers, but we appreciate if you do
You receive ORCA, which is the product of decades of hard work by many enthusiastic individuals, for free
The only thing we kindly ask in return is that you cite our papers,
We deeply appreciate it, if you show your appreciation for ORCA by not just citing the generic ORCA reference.

Please note that relegating all ORCA citations to the supporting information does *not* help us.
SI sections are not indexed - citations you put there will not count into any citation statistics
But we need these citations in order to attract the funding resources that allow us to do what we are doing

Therefore, if you are a happy ORCA user, please consider citing a few of the papers listed below in the main body of your paper

In addition to the list printed below, the program has created the file ELIRUN-S6.bibtex that contains the list in bibtex format
You can import this file easily into all common literature databanks and citation aid programs


List of essential papers. We consider these as the minimum necessary citations

  1. Neese,F.
     Software update: the ORCA program system, version 5.0
     WIRES Comput. Molec. Sci., 2022 12(1)e1606
     doi.org/10.1002/wcms.1606

List of papers to cite with high priority. The work reported in these papers was absolutely
necessary for this run to complete.
Our perspective: the developers of density functionals and basis sets usually get cited in chemistry papers
Good! But without the algorithms to do something with them, the functionals or basis sets would not do anything.
Hence, in our opinion, the algorithm design and method developments papers are equally worthy of getting cited

  1. Neese,F.
     An improvement of the resolution of the identity approximation for the formation of the Coulomb matrix
     J. Comp. Chem., 2003 24(14)1740-1747
     doi.org/10.1002/jcc.10318
  2. Neese,F.; Wennmohs,F.; Hansen,A.; Becker,U.
     Efficient, approximate and parallel Hartree-Fock and hybrid DFT calculations. A 'chain-of-spheres' algorithm for the Hartree-Fock exchange
     Chem. Phys., 2009 356(1-3)98-109
     doi.org/10.1016/j.chemphys.2008.10.036
  3. Bykov,D.; Petrenko,T.; Izsak,R.; Kossmann,S.; Becker,U.; Valeev,E.; Neese,F.
     Efficient implementation of the analytic second derivatives of Hartree-Fock and hybrid DFT energies: a detailed analysis of different approximations
     Molec. Phys., 2015 113 1961-1977
     doi.org/10.1080/00268976.2015.1025114
  4. Helmich-Paris,B.; de Souza,B.; Neese,F.; Izsák,R.
     An improved chain of spheres for exchange algorithm
     J. Chem. Phys., 2021 155 104109
     doi.org/doi: 10.1063/5.0058766.
  5. Neese,F.
     The SHARK Integral Generation and Digestion System
     J. Comp. Chem., 2022  1-16
     doi.org/10.1002/jcc.26942

List of suggested additional citations. These are papers that are important in the 'surrounding' of 
of this run, or papers that preceded the highly important papers. If you like your results we are grateful for a citation.

  1. Izsak,R.; Neese,F.
     An overlap fitted chain of spheres exchange method
     J. Chem. Phys., 2011 135 144105
     doi.org/10.1063/1.3646921
  2. Izsak,R.; Hansen,A.; Neese,F.
     The resolution of identity and chain of spheres approximations for the LPNO-CCSD singles Fock term
     Molec. Phys., 2012 110 2413-2417
     doi.org/10.1080/00268976.2012.687466
  3. Neese,F.
     The ORCA program system
     WIRES Comput. Molec. Sci., 2012 2(1)73-78
     doi.org/10.1002/wcms.81
  4. Izsak,R.; Neese,F.; Klopper,W.
     Robust fitting techniques in the chain of spheres approximation to the Fock exchange: The role of the complementary space
     J. Chem. Phys., 2013 139 
     doi.org/10.1063/1.4819264
  5. Neese,F.
     Software update: the ORCA program system, version 4.0
     WIRES Comput. Molec. Sci., 2018 8(1)1-6
     doi.org/10.1002/wcms.1327
  6. Neese,F.; Wennmohs,F.; Becker,U.; Riplinger,C.
     The ORCA quantum chemistry program package
     J. Chem. Phys., 2020 152 Art. No. L224108
     doi.org/10.1063/5.0004608

List of optional additional citations

  1. Neese,F.
     Approximate second-order SCF convergence for spin unrestricted wavefunctions
     Chem. Phys. Lett., 2000 325(1-3)93-98
     doi.org/10.1016/s0009-2614(00)00662-x

Timings for individual modules:

Sum of individual times          ...    12496.137 sec (= 208.269 min)
Startup calculation              ...      228.364 sec (=   3.806 min)   1.8 %
SCF iterations                   ...     3907.715 sec (=  65.129 min)  31.3 %
Property integrals               ...     2397.170 sec (=  39.953 min)  19.2 %
SCF Response                     ...     4052.420 sec (=  67.540 min)  32.4 %
Property calculations            ...      849.192 sec (=  14.153 min)   6.8 %
SCF Gradient evaluation          ...     1060.735 sec (=  17.679 min)   8.5 %
Geometry relaxation              ...        0.541 sec (=   0.009 min)   0.0 %
                             ****ORCA TERMINATED NORMALLY****
TOTAL RUN TIME: 0 days 3 hours 29 minutes 3 seconds 273 msec
