
                                 *****************
                                 * O   R   C   A *
                                 *****************

                                            #,                                       
                                            ###                                      
                                            ####                                     
                                            #####                                    
                                            ######                                   
                                           ########,                                 
                                     ,,################,,,,,                         
                               ,,#################################,,                 
                          ,,##########################################,,             
                       ,#########################################, ''#####,          
                    ,#############################################,,   '####,        
                  ,##################################################,,,,####,       
                ,###########''''           ''''###############################       
              ,#####''   ,,,,##########,,,,          '''####'''          '####       
            ,##' ,,,,###########################,,,                        '##       
           ' ,,###''''                  '''############,,,                           
         ,,##''                                '''############,,,,        ,,,,,,###''
      ,#''                                            '''#######################'''  
     '                                                          ''''####''''         
             ,#######,   #######,   ,#######,      ##                                
            ,#'     '#,  ##    ##  ,#'     '#,    #''#        ,####,   ,####,        
            ##       ##  ##   ,#'  ##            #'  '#       #'       #'  '#        
            ##       ##  #######   ##           ,######,      #####,   #    #        
            '#,     ,#'  ##    ##  '#,     ,#' ,#      #,     #,   #   #,  ,#        
             '#######'   ##     ##  '#######'  #'      '#     '####' # '####'        



                #########################################################
                #                        -***-                          #
                #          Department of theory and spectroscopy        #
                #                                                       #
                #                      Frank Neese                      #
                #                                                       #
                #     Directorship, Architecture, Infrastructure        #
                #                    SHARK, DRIVERS                     #
                #        Core code/Algorithms in most modules           #
                #                                                       #
                #        Max Planck Institute fuer Kohlenforschung      #
                #                Kaiser Wilhelm Platz 1                 #
                #                 D-45470 Muelheim/Ruhr                 #
                #                      Germany                          #
                #                                                       #
                #                  All rights reserved                  #
                #                        -***-                          #
                #########################################################


                         Program Version 6.0.1  -  RELEASE   -


 With contributions from (in alphabetic order):
[Max-Planck-Institut fuer Kohlenforschung]                               
  Daniel Aravena         : Magnetic Suceptibility                        
  Michael Atanasov       : Ab Initio Ligand Field Theory (pilot matlab implementation)
  Alexander A. Auer      : GIAO ZORA, VPT2 properties, NMR spectrum      
  Ute Becker             : All parallelization in ORCA, NUMFREQ, NUMCALC 
  Giovanni Bistoni       : ED, misc. LED, open-shell LED, HFLD           
  Martin Brehm           : Molecular dynamics                            
  Dmytro Bykov           : pre 5.0 version of the SCF Hessian            
  Marcos Casanova-Páez   : Triplet and SCS-CIS(D). UHF-(DLPNO)-IP/EA/STEOM-CCSD. UHF-CVS-IP/STEOM-CCSD   
  Vijay G. Chilkuri      : MRCI spin determinant printing, contributions to CSF-ICE 
  Pauline Colinet        : FMM embedding                                 
  Dipayan Datta          : RHF DLPNO-CCSD density                        
  Achintya Kumar Dutta   : EOM-CC, STEOM-CC                              
  Nicolas Foglia         : Exact transition moments, OPA infrastructure, MCD improvements    
  Dmitry Ganyushin       : Spin-Orbit,Spin-Spin,Magnetic field MRCI      
  Miquel Garcia-Rates    : C-PCM and meta-GGA Hessian, CCSD/C-PCM, Gaussian charge scheme 
  Tiago L. C. Gouveia    : GS-ROHF, GS-ROCIS                             
  Yang Guo               : DLPNO-NEVPT2, F12-NEVPT2, CIM, IAO-localization        
  Andreas Hansen         : Spin unrestricted coupled pair/coupled cluster methods 
  Ingolf Harden          : AUTO-CI MPn and infrastructure                
  Benjamin Helmich-Paris : MC-RPA, TRAH-(SCF,CASSCF), AVAS, COSX integrals, SCF dyn. polar. 
  Lee Huntington         : MR-EOM, pCC                                   
  Robert Izsak           : Overlap fitted RIJCOSX, COSX-SCS-MP3, EOM     
  Riya Kayal             : Wick's Theorem for AUTO-CI, AUTO-CI UHF-CCSDT 
  Emily Kempfer          : AUTO-CI, RHF CISDT and CCSDT                  
  Christian Kollmar      : KDIIS, OOCD, Brueckner-CCSD(T), CCSD density, CASPT2, CASPT2-K, improved NEVPT2 
  Axel Koslowski         : Symmetry handling                             
  Simone Kossmann        : meta-GGA functionals, TD-DFT gradient, OOMP2, (MP2 Hessian; deprecated post 5.0) 
  Lucas Lang             : DCDCAS                                        
  Marvin Lechner         : AUTO-CI (C++ implementation), FIC-MRCC        
  Spencer Leger          : CASSCF response                               
  Dagmar Lenk            : GEPOL surface, SMD, ORCA-2-JSON               
  Dimitrios Liakos       : Extrapolation schemes; Compound Job, initial MDCI parallelization 
  Dimitrios Manganas     : Further ROCIS development; embedding schemes. LFT, Crystal Embedding 
  Dimitrios Pantazis     : SARC Basis sets                               
  Anastasios Papadopoulos: AUTO-CI, single reference methods and gradients 
  Taras Petrenko         : pre 6.0 DFT Hessian and TD-DFT gradient, (ASA, deprecated), ECA, 1-Electron XAS/XES, NRVS 
  Peter Pinski           : DLPNO-MP2, DLPNO-MP2 Gradient                 
  Christoph Reimann      : Effective Core Potentials                     
  Marius Retegan         : Local ZFS, SOC                                
  Christoph Riplinger    : Optimizer, TS searches, QM/MM, DLPNO-CCSD(T), (RO)-DLPNO pert. Triples 
  Michael Roemelt        : Original ROCIS implementation                 
  Masaaki Saitow         : Open-shell DLPNO-CCSD energy and density      
  Barbara Sandhoefer     : DKH picture change effects                    
  Kantharuban Sivalingam : CASSCF convergence/infrastructure, NEVPT2 and variants, FIC-MRCI 
  Bernardo de Souza      : ESD, SOC TD-DFT                               
  Georgi L. Stoychev     : AutoAux, RI-MP2 NMR, DLPNO-MP2 response, X2C  
  Van Anh Tran           : RI-MP2 g-tensors                              
  Willem Van den Heuvel  : Paramagnetic NMR                              
  Zikuan Wang            : NOTCH, Electric field optimization            
  Frank Wennmohs         : Technical directorship and infrastructure     
  Hang Xu                : AUTO-CI-Response properties                   
                                                                         
[FACCTs GmbH]                                                            
  Markus Bursch, Miquel Garcia-Rates, Christoph Riplinger, Bernardo de Souza, Georgi L. Stoychev 
                                                                 
  APM, Basis sets (HGBS, AHGBS, def-TZVP (Ac-Lr), def2-XVPD (La-Lu)), CI-OPT, improved COSX, DLPNO-Multilevel,           
  DOCKER, DRACO, updates on ESD, GOAT, IRC, LR-CPCM, MBIS, meta-GGA TD-DFT gradient, ML-optimized integration grids, 
  MM, NACMEs, nearIR, NEB, NEB-TS, NL-DFT gradient (VV10), 2- and 3-layer-ONIOM, interface openCOSMO-RS, QMMM,   
  Crystal-QMMM, SF, symmetry and pop. for TD-DFT, r2SCAN hybrids, SOLVATOR                                   
                                                                         
[Other institutions]                                                     
  V. Asgeirsson          : NEB                                           
  Christoph Bannwarth    : sTDA-DFT, sTD-DFT, PBEh-3c, B97-3c, D3        
  Sebastian Ehlert       : rSCAN, r2SCAN, r2SCAN-3c, D4, dhf basis sets  
  Marvin Friede          : D4 for Fr, Ra, Ac-Lr                          
  Lars Goerigk           : TD-DFT with DH, B97 family of functionals     
  Stefan Grimme          : VdW corrections, initial TS optimization, DFT functionals, gCP, sTDA/sTD-DF 
  Waldemar Hujo          : DFT-NL                                        
  H. Jonsson             : NEB                                           
  Holger Kruse           : gCP                                           
  Marcel Mueller         : wB97X-3c, vDZP basis set                      
  Hagen Neugebauer       : wr2SCAN                                       
  Tobias Risthaus        : range-separated hybrid DFT                    
  Lukas Wittmann         : regularized MP2, r2SCAN double-hybrids, wr2SCAN        
                                                                         
We gratefully acknowledge several colleagues who have allowed us to      
interface, adapt or use parts of their codes:                            
  Ed Valeev, F. Pavosevic, A. Kumar             : LibInt (2-el integral package), F12 methods 
  Garnet Chan, S. Sharma, J. Yang, R. Olivares  : DMRG                   
  Ulf Ekstrom                                   : XCFun DFT Library      
  Mihaly Kallay                                 : mrcc  (arbitrary order and MRCC methods)
  Frank Weinhold                                : gennbo (NPA and NBO analysis)           
  Simon Mueller                                 : openCOSMO-RS                            
  Christopher J. Cramer and Donald G. Truhlar   : smd solvation model                     
  S Lehtola, MJT Oliveira, MAL Marques          : LibXC Library                           
  Liviu Ungur et al                             : ANISO software                          


 Your calculation uses the libint2 library for the computation of 2-el integrals
 For citations please refer to: http://libint.valeyev.net

 Your ORCA version has been built with support for libXC version: 6.2.2
 For citations please refer to: https://libxc.gitlab.io

 This ORCA versions uses:
   CBLAS   interface :  Fast vector & matrix operations
   LAPACKE interface :  Fast linear algebra routines
   SCALAPACK package :  Parallel linear algebra routines
   Shared memory     :  Shared parallel matrices
   BLAS/LAPACK       :  OpenBLAS 0.3.27  USE64BITINT DYNAMIC_ARCH NO_AFFINITY Cooperlake SINGLE_THREADED
        Core in use  :  Cooperlake
   Copyright (c) 2011-2014, The OpenBLAS Project


NOTE: MaxCore=3600 MB was set to SCF,MP2,MDCI,CIPSI,MRCI and CIS
      => If you want to overwrite this, your respective input block should be placed after the MaxCore statement
Warning: RI is on but no J-basis has been assigned. Assigning Def2/J (nothing to worry about!)
================================================================================

----- Orbital basis set information -----
Your calculation utilizes the basis: def2-TZVP
   F. Weigend and R. Ahlrichs, Phys. Chem. Chem. Phys. 7, 3297 (2005).

----- AuxJ basis set information -----
Your calculation utilizes the auxiliary basis: def2/J
   F. Weigend, Phys. Chem. Chem. Phys. 8, 1057 (2006).

================================================================================
                                        WARNINGS
                       Please study these warnings very carefully!
================================================================================


WARNING: your system is open-shell and RHF/RKS was chosen
  ===> : WILL SWITCH to UHF/UKS


WARNING: Geometry Optimization
  ===> : Switching off AutoStart
         For restart on a previous wavefunction, please use MOREAD

================================================================================
                                       INPUT FILE
================================================================================
NAME = FEACAC03-S6.inp
|  1> ! PBE0 def2-TZVP  Opt Freq DEFGRID3
|  2> 
|  3> %maxcore 3600
|  4> 
|  5> %pal
|  6>     nprocs 16
|  7> end
|  8> 
|  9> *xyz 0 6
| 10> Fe 4.2095 9.9204 3.1342
| 11> O 5.5049 10.8486 4.349
| 12> O 5.793 9.1678 2.1793
| 13> O 4.1436 8.4007 4.4237
| 14> O 2.9578 8.9008 1.9946
| 15> O 2.764 10.847 4.1291
| 16> O 4.1154 11.3934 1.7964
| 17> C 7.4127 11.3996 5.5969
| 18> C 6.7619 10.6664 4.4672
| 19> C 7.5088 9.8731 3.6199
| 20> C 7.007 9.2141 2.5038
| 21> C 7.9592 8.4872 1.5832
| 22> C 3.66 6.4005 5.5466
| 23> C 3.5093 7.3157 4.368
| 24> C 2.6779 6.9638 3.2886
| 25> C 2.456 7.754 2.1861
| 26> C 1.5186 7.291 1.0944
| 27> C 1.2851 12.4475 4.9614
| 28> C 2.2457 11.9752 3.9037
| 29> C 2.4957 12.7315 2.7903
| 30> C 3.39 12.4028 1.7787
| 31> C 3.4944 13.3041 0.5811
| 32> H 6.8844 11.2715 6.3857
| 33> H 7.4939 12.2978 5.3959
| 34> H 8.2772 11.0075 5.7544
| 35> H 8.4312 9.7744 3.8059
| 36> H 8.6548 9.103 1.3225
| 37> H 8.3219 7.7494 2.0028
| 38> H 7.4839 8.2356 0.7902
| 39> H 4.5394 6.5209 5.9187
| 40> H 3.5689 5.5007 5.2655
| 41> H 3.0158 6.6104 6.1984
| 42> H 2.2241 6.1335 3.3266
| 43> H 1.4955 6.3233 1.0903
| 44> H 0.6558 7.6182 1.2397
| 45> H 1.8466 7.5766 0.2471
| 46> H 0.8744 11.7021 5.381
| 47> H 0.6508 13.0232 4.6002
| 48> H 1.7936 12.9244 5.6444
| 49> H 2.0105 13.5402 2.6979
| 50> H 2.827 13.0695 -0.057
| 51> H 3.3619 14.2101 0.85
| 52> H 4.3522 13.2177 0.186
| 53> *
| 54> 
| 55>                          ****END OF INPUT****
================================================================================

                       *****************************
                       * Geometry Optimization Run *
                       *****************************

Geometry optimization settings:
Update method            Update   .... BFGS
Choice of coordinates    CoordSys .... (2022) Redundant Internals
Initial Hessian          InHess   .... Almloef's Model
Max. no of cycles        MaxIter  .... 129

Convergence Tolerances:
Energy Change            TolE     ....  5.0000e-06 Eh
Max. Gradient            TolMAXG  ....  3.0000e-04 Eh/bohr
RMS Gradient             TolRMSG  ....  1.0000e-04 Eh/bohr
Max. Displacement        TolMAXD  ....  4.0000e-03 bohr
RMS Displacement         TolRMSD  ....  2.0000e-03 bohr
Strict Convergence                .... False

------------------------------------------------------------------------------
                        ORCA OPTIMIZATION COORDINATE SETUP
------------------------------------------------------------------------------

The optimization will be done in redundant internal coordinates (2022)
Making redundant internal coordinates   ...  (2022 redundants) done
Evaluating the initial hessian          ...  (Almloef) done
Evaluating the coordinates              ...  done
Calculating the B-matrix                .... done
Calculating the G-matrix                .... done
Diagonalizing the G-matrix              .... done
Small eigenvalue found = 1.171e-02
Small eigenvalue found = 1.279e-02
Small eigenvalue found = 1.736e-02
Small eigenvalue found = 1.863e-02
Small eigenvalue found = 1.924e-02
Small eigenvalue found = 2.493e-02
Small eigenvalue found = 2.745e-02
The first mode is                       ....   98
The number of degrees of freedom        ....  123

    -----------------------------------------------------------------
                    Redundant Internal Coordinates


    -----------------------------------------------------------------
         Definition                    Initial Value    Approx d2E/dq
    -----------------------------------------------------------------
      1. B(O   1,Fe  0)                  2.0038         0.593834   
      2. B(O   2,Fe  0)                  1.9964         0.610222   
      3. B(O   3,Fe  0)                  1.9942         0.615339   
      4. B(O   4,Fe  0)                  1.9761         0.657496   
      5. B(O   5,Fe  0)                  1.9844         0.637759   
      6. B(O   6,Fe  0)                  1.9921         0.620092   
      7. B(C   8,O   1)                  1.2756         0.851834   
      8. B(C   8,C   7)                  1.4958         0.423624   
      9. B(C   9,C   8)                  1.3803         0.647571   
     10. B(C  10,C   9)                  1.3899         0.625074   
     11. B(C  10,O   2)                  1.2575         0.910569   
     12. B(C  11,C  10)                  1.5108         0.400848   
     13. B(C  13,C  12)                  1.4998         0.417407   
     14. B(C  13,O   3)                  1.2580         0.908677   
     15. B(C  14,C  13)                  1.4072         0.586576   
     16. B(C  15,C  14)                  1.3745         0.661484   
     17. B(C  15,O   4)                  1.2663         0.881377   
     18. B(C  16,C  15)                  1.5116         0.399718   
     19. B(C  18,C  17)                  1.5048         0.409747   
     20. B(C  18,O   5)                  1.2619         0.896034   
     21. B(C  19,C  18)                  1.3690         0.674916   
     22. B(C  20,C  19)                  1.3897         0.625581   
     23. B(C  20,O   6)                  1.2431         0.959787   
     24. B(C  21,C  20)                  1.5025         0.413297   
     25. B(H  22,C   7)                  0.9580         0.584872   
     26. B(H  23,C   7)                  0.9240         0.662646   
     27. B(H  24,C   7)                  0.9622         0.575776   
     28. B(H  25,C   9)                  0.9461         0.610887   
     29. B(H  26,C  11)                  0.9649         0.570179   
     30. B(H  27,C  11)                  0.9230         0.665014   
     31. B(H  28,C  11)                  0.9582         0.584484   
     32. B(H  29,C  12)                  0.9624         0.575347   
     33. B(H  30,C  12)                  0.9471         0.608760   
     34. B(H  31,C  12)                  0.9402         0.624437   
     35. B(H  32,C  14)                  0.9470         0.608973   
     36. B(H  33,C  16)                  0.9680         0.563756   
     37. B(H  34,C  16)                  0.9341         0.638420   
     38. B(H  35,C  16)                  0.9524         0.596970   
     39. B(H  36,C  17)                  0.9489         0.604759   
     40. B(H  37,C  17)                  0.9296         0.649031   
     41. B(H  38,C  17)                  0.9760         0.547481   
     42. B(H  39,C  19)                  0.9476         0.607586   
     43. B(H  40,C  21)                  0.9527         0.596323   
     44. B(H  41,C  21)                  0.9543         0.592809   
     45. B(H  42,C  21)                  0.9484         0.605896   
     46. A(O   2,Fe  0,O   3)           92.7638         0.541510   
     47. A(O   2,Fe  0,O   6)           89.7136         0.542299   
     48. A(O   3,Fe  0,O   5)           90.4340         0.546053   
     49. A(O   2,Fe  0,O   4)           91.8377         0.548348   
     50. A(O   5,Fe  0,O   6)           87.5363         0.546850   
     51. A(O   4,Fe  0,O   5)           93.9366         0.552960   
     52. A(O   1,Fe  0,O   5)           87.1722         0.542388   
     53. A(O   3,Fe  0,O   4)           87.6372         0.549217   
     54. A(O   1,Fe  0,O   6)           95.4600         0.539514   
     55. A(O   1,Fe  0,O   3)           88.9886         0.538730   
     56. A(O   4,Fe  0,O   6)           87.9550         0.550019   
     57. A(O   1,Fe  0,O   2)           87.2392         0.537881   
     58. A(O   2,Fe  0,O   5)          173.5101         0.545190   
     59. A(Fe  0,O   1,C   8)          128.8317         0.507135   
     60. A(Fe  0,O   2,C  10)          128.9348         0.516117   
     61. A(Fe  0,O   3,C  13)          130.1873         0.516724   
     62. A(Fe  0,O   4,C  15)          129.1271         0.520200   
     63. A(Fe  0,O   5,C  18)          128.8383         0.518837   
     64. A(Fe  0,O   6,C  20)          129.6078         0.522809   
     65. A(H  22,C   7,H  23)          110.9510         0.347600   
     66. A(H  22,C   7,H  24)          107.8301         0.339505   
     67. A(C   8,C   7,H  24)          108.3473         0.358246   
     68. A(C   8,C   7,H  23)          110.5142         0.366947   
     69. A(C   8,C   7,H  22)          108.4450         0.359203   
     70. A(H  23,C   7,H  24)          110.6566         0.346684   
     71. A(O   1,C   8,C   9)          123.9482         0.460379   
     72. A(C   7,C   8,C   9)          120.6586         0.408698   
     73. A(O   1,C   8,C   7)          115.3857         0.426366   
     74. A(C  10,C   9,H  25)          117.4121         0.386995   
     75. A(C   8,C   9,H  25)          117.8292         0.389389   
     76. A(C   8,C   9,C  10)          124.7568         0.438124   
     77. A(C   9,C  10,C  11)          119.3333         0.402208   
     78. A(O   2,C  10,C  11)          115.6903         0.427239   
     79. A(O   2,C  10,C   9)          124.9764         0.463021   
     80. A(H  27,C  11,H  28)          111.1781         0.347770   
     81. A(C  10,C  11,H  28)          108.5423         0.355805   
     82. A(C  10,C  11,H  27)          110.8081         0.363714   
     83. A(C  10,C  11,H  26)          108.1755         0.354312   
     84. A(H  26,C  11,H  27)          110.4678         0.346323   
     85. A(H  26,C  11,H  28)          107.5526         0.338914   
     86. A(H  29,C  12,H  30)          108.7534         0.341742   
     87. A(C  13,C  12,H  31)          109.8602         0.362320   
     88. A(C  13,C  12,H  30)          109.6848         0.360752   
     89. A(C  13,C  12,H  29)          108.6202         0.357302   
     90. A(H  30,C  12,H  31)          110.6084         0.346469   
     91. A(H  29,C  12,H  31)          109.2757         0.343201   
     92. A(C  12,C  13,C  14)          120.6342         0.400575   
     93. A(O   3,C  13,C  14)          123.1978         0.457504   
     94. A(O   3,C  13,C  12)          116.1566         0.430191   
     95. A(C  13,C  14,H  32)          118.1387         0.382529   
     96. A(C  13,C  14,C  15)          124.5343         0.434797   
     97. A(C  15,C  14,H  32)          117.3160         0.390623   
     98. A(C  14,C  15,C  16)          120.2210         0.406044   
     99. A(O   4,C  15,C  16)          114.4505         0.424539   
    100. A(O   4,C  15,C  14)          125.3077         0.465060   
    101. A(C  15,C  16,H  33)          108.9092         0.353464   
    102. A(H  33,C  16,H  35)          107.7122         0.339469   
    103. A(H  34,C  16,H  35)          110.5753         0.346620   
    104. A(C  15,C  16,H  35)          109.7001         0.356913   
    105. A(H  33,C  16,H  34)          109.1952         0.343304   
    106. A(C  15,C  16,H  34)          110.6809         0.361014   
    107. A(H  37,C  17,H  38)          108.9536         0.342568   
    108. A(H  36,C  17,H  38)          107.4522         0.338545   
    109. A(C  18,C  17,H  38)          108.2193         0.353194   
    110. A(C  18,C  17,H  37)          110.9047         0.363567   
    111. A(C  18,C  17,H  36)          109.9106         0.359211   
    112. A(H  36,C  17,H  37)          111.2827         0.348343   
    113. A(C  17,C  18,C  19)          120.9854         0.409281   
    114. A(O   5,C  18,C  19)          124.3469         0.468188   
    115. A(O   5,C  18,C  17)          114.6614         0.427688   
    116. A(C  20,C  19,H  39)          117.4123         0.386684   
    117. A(C  18,C  19,H  39)          117.2110         0.391842   
    118. A(C  18,C  19,C  20)          125.3723         0.441473   
    119. A(C  19,C  20,C  21)          118.8852         0.404441   
    120. A(O   6,C  20,C  21)          117.2505         0.433671   
    121. A(O   6,C  20,C  19)          123.8632         0.467573   
    122. A(H  41,C  21,H  42)          109.2366         0.343187   
    123. A(H  40,C  21,H  42)          109.4003         0.343527   
    124. A(C  20,C  21,H  42)          109.8933         0.359854   
    125. A(H  40,C  21,H  41)          108.9805         0.342272   
    126. A(C  20,C  21,H  41)          109.5884         0.358519   
    127. A(C  20,C  21,H  40)          109.7230         0.358880   
    128. D(C   8,O   1,Fe  0,O   6)   -101.5096         0.003234   
    129. D(C   8,O   1,Fe  0,O   2)    -12.0617         0.003234   
    130. D(C   8,O   1,Fe  0,O   3)     80.7546         0.003234   
    131. D(C   8,O   1,Fe  0,O   5)    171.2392         0.003234   
    132. D(C  10,O   2,Fe  0,O   3)    -79.8283         0.003332   
    133. D(C  10,O   2,Fe  0,O   4)   -167.5504         0.003332   
    134. D(C  10,O   2,Fe  0,O   1)      9.0246         0.003332   
    135. D(C  10,O   2,Fe  0,O   5)     39.6083         0.003332   
    136. D(C  10,O   2,Fe  0,O   6)    104.5049         0.003332   
    137. D(C  13,O   3,Fe  0,O   5)     93.9597         0.003363   
    138. D(C  13,O   3,Fe  0,O   2)    -91.6896         0.003363   
    139. D(C  13,O   3,Fe  0,O   4)      0.0376         0.003363   
    140. D(C  13,O   3,Fe  0,O   1)   -178.8762         0.003363   
    141. D(C  15,O   4,Fe  0,O   3)     -0.8434         0.003629   
    142. D(C  15,O   4,Fe  0,O   2)     91.8483         0.003629   
    143. D(C  15,O   4,O   1,C   8)     78.2808         0.001500   
    144. D(C  15,O   4,Fe  0,O   6)   -178.5041         0.003629   
    145. D(C  15,O   4,Fe  0,O   5)    -91.1161         0.003629   
    146. D(C  18,O   5,Fe  0,O   6)     -6.2857         0.003502   
    147. D(C  18,O   5,Fe  0,O   3)    178.2743         0.003502   
    148. D(C  18,O   5,Fe  0,O   4)    -94.0642         0.003502   
    149. D(C  18,O   5,Fe  0,O   2)     58.7228         0.003502   
    150. D(C  18,O   5,Fe  0,O   1)     89.3084         0.003502   
    151. D(C  20,O   6,O   3,C  13)     92.0149         0.001500   
    152. D(C  20,O   6,Fe  0,O   5)      0.7278         0.003392   
    153. D(C  20,O   6,Fe  0,O   4)     94.7589         0.003392   
    154. D(C  20,O   6,Fe  0,O   2)   -173.3921         0.003392   
    155. D(C  20,O   6,Fe  0,O   1)    -86.1929         0.003392   
    156. D(O   1,C   8,C   7,H  22)     47.0753         0.013263   
    157. D(C   9,C   8,O   1,Fe  0)      8.7270         0.056804   
    158. D(C   7,C   8,O   1,Fe  0)   -172.2700         0.056804   
    159. D(C   9,C   8,C   7,H  23)    104.2939         0.013263   
    160. D(C   9,C   8,C   7,H  22)   -133.8862         0.013263   
    161. D(O   1,C   8,C   7,H  24)    163.8622         0.013263   
    162. D(O   1,C   8,C   7,H  23)    -74.7445         0.013263   
    163. D(H  25,C   9,C   8,C   7)      3.1625         0.029183   
    164. D(H  25,C   9,C   8,O   1)   -177.8847         0.029183   
    165. D(C  10,C   9,C   8,C   7)   -176.3240         0.029183   
    166. D(C  10,C   9,C   8,O   1)      2.6288         0.029183   
    167. D(C  11,C  10,C   9,H  25)     -5.4604         0.027064   
    168. D(C  11,C  10,C   9,C   8)    174.0280         0.027064   
    169. D(O   2,C  10,C   9,H  25)    174.6303         0.027064   
    170. D(O   2,C  10,C   9,C   8)     -5.8812         0.027064   
    171. D(C  11,C  10,O   2,Fe  0)    177.4752         0.066081   
    172. D(C   9,C  10,O   2,Fe  0)     -2.6126         0.066081   
    173. D(H  28,C  11,C  10,O   2)     10.5204         0.011922   
    174. D(H  27,C  11,C  10,C   9)     68.2521         0.011922   
    175. D(H  27,C  11,C  10,O   2)   -111.8305         0.011922   
    176. D(H  26,C  11,C  10,C   9)    -52.9790         0.011922   
    177. D(H  26,C  11,C  10,O   2)    126.9385         0.011922   
    178. D(C  14,C  13,C  12,H  30)     31.0964         0.012888   
    179. D(C  14,C  13,C  12,H  29)    149.8372         0.012888   
    180. D(O   3,C  13,C  12,H  31)     88.1313         0.012888   
    181. D(O   3,C  13,C  12,H  30)   -150.0868         0.012888   
    182. D(O   3,C  13,C  12,H  29)    -31.3460         0.012888   
    183. D(C  14,C  13,O   3,Fe  0)      0.4781         0.065768   
    184. D(C  12,C  13,O   3,Fe  0)   -178.3052         0.065768   
    185. D(H  32,C  14,C  13,C  12)     -0.4195         0.023664   
    186. D(H  32,C  14,C  13,O   3)   -179.1503         0.023664   
    187. D(C  15,C  14,C  13,C  12)    178.3375         0.023664   
    188. D(C  15,C  14,C  13,O   3)     -0.3933         0.023664   
    189. D(C  16,C  15,O   4,Fe  0)    179.4887         0.061361   
    190. D(C  14,C  15,O   4,Fe  0)      1.1550         0.061361   
    191. D(C  16,C  15,C  14,H  32)      0.0679         0.030543   
    192. D(C  16,C  15,C  14,C  13)   -178.6985         0.030543   
    193. D(O   4,C  15,C  14,H  32)    178.3124         0.030543   
    194. D(O   4,C  15,C  14,C  13)     -0.4539         0.030543   
    195. D(H  35,C  16,C  15,O   4)     37.2620         0.011858   
    196. D(H  34,C  16,C  15,C  14)     93.4016         0.011858   
    197. D(H  34,C  16,C  15,O   4)    -85.0248         0.011858   
    198. D(H  33,C  16,C  15,C  14)    -26.6507         0.011858   
    199. D(H  33,C  16,C  15,O   4)    154.9229         0.011858   
    200. D(C  19,C  18,C  17,H  36)    149.8986         0.012435   
    201. D(O   5,C  18,C  17,H  38)     87.8369         0.012435   
    202. D(O   5,C  18,C  17,H  37)   -152.7066         0.012435   
    203. D(O   5,C  18,C  17,H  36)    -29.2302         0.012435   
    204. D(C  19,C  18,O   5,Fe  0)      8.1308         0.063704   
    205. D(C  19,C  18,C  17,H  37)     26.4222         0.012435   
    206. D(C  17,C  18,O   5,Fe  0)   -172.7738         0.063704   
    207. D(H  39,C  19,C  18,C  17)     -2.7044         0.031893   
    208. D(H  39,C  19,C  18,O   5)    176.3367         0.031893   
    209. D(C  20,C  19,C  18,C  17)    178.0915         0.031893   
    210. D(C  20,C  19,C  18,O   5)     -2.8674         0.031893   
    211. D(C  21,C  20,C  19,H  39)     -2.5973         0.027110   
    212. D(C  21,C  20,C  19,C  18)    176.6054         0.027110   
    213. D(O   6,C  20,C  19,H  39)    177.7871         0.027110   
    214. D(O   6,C  20,C  19,C  18)     -3.0102         0.027110   
    215. D(C  21,C  20,O   6,Fe  0)   -176.5246         0.074535   
    216. D(C  19,C  20,O   6,Fe  0)      3.0968         0.074535   
    217. D(H  42,C  21,C  20,O   6)    -25.9553         0.012644   
    218. D(H  41,C  21,C  20,C  19)     34.3592         0.012644   
    219. D(H  41,C  21,C  20,O   6)   -145.9999         0.012644   
    220. D(H  40,C  21,C  20,C  19)    -85.2656         0.012644   
    221. D(H  40,C  21,C  20,O   6)     94.3754         0.012644   
    -----------------------------------------------------------------

Number of atoms                         .... 43
Number of degrees of freedom            .... 221


         *************************************************************
         *                GEOMETRY OPTIMIZATION CYCLE   1            *
         *************************************************************
---------------------------------
CARTESIAN COORDINATES (ANGSTROEM)
---------------------------------
  Fe     4.209500    9.920400    3.134200
  O      5.504900   10.848600    4.349000
  O      5.793000    9.167800    2.179300
  O      4.143600    8.400700    4.423700
  O      2.957800    8.900800    1.994600
  O      2.764000   10.847000    4.129100
  O      4.115400   11.393400    1.796400
  C      7.412700   11.399600    5.596900
  C      6.761900   10.666400    4.467200
  C      7.508800    9.873100    3.619900
  C      7.007000    9.214100    2.503800
  C      7.959200    8.487200    1.583200
  C      3.660000    6.400500    5.546600
  C      3.509300    7.315700    4.368000
  C      2.677900    6.963800    3.288600
  C      2.456000    7.754000    2.186100
  C      1.518600    7.291000    1.094400
  C      1.285100   12.447500    4.961400
  C      2.245700   11.975200    3.903700
  C      2.495700   12.731500    2.790300
  C      3.390000   12.402800    1.778700
  C      3.494400   13.304100    0.581100
  H      6.884400   11.271500    6.385700
  H      7.493900   12.297800    5.395900
  H      8.277200   11.007500    5.754400
  H      8.431200    9.774400    3.805900
  H      8.654800    9.103000    1.322500
  H      8.321900    7.749400    2.002800
  H      7.483900    8.235600    0.790200
  H      4.539400    6.520900    5.918700
  H      3.568900    5.500700    5.265500
  H      3.015800    6.610400    6.198400
  H      2.224100    6.133500    3.326600
  H      1.495500    6.323300    1.090300
  H      0.655800    7.618200    1.239700
  H      1.846600    7.576600    0.247100
  H      0.874400   11.702100    5.381000
  H      0.650800   13.023200    4.600200
  H      1.793600   12.924400    5.644400
  H      2.010500   13.540200    2.697900
  H      2.827000   13.069500   -0.057000
  H      3.361900   14.210100    0.850000
  H      4.352200   13.217700    0.186000

----------------------------
CARTESIAN COORDINATES (A.U.)
----------------------------
  NO LB      ZA    FRAG     MASS         X           Y           Z
   0 Fe   26.0000    0    55.850    7.954802   18.746839    5.922780
   1 O     8.0000    0    15.999   10.402753   20.500883    8.218419
   2 O     8.0000    0    15.999   10.947183   17.324631    4.118280
   3 O     8.0000    0    15.999    7.830269   15.875022    8.359581
   4 O     8.0000    0    15.999    5.589432   16.820074    3.769248
   5 O     8.0000    0    15.999    5.223203   20.497859    7.802868
   6 O     8.0000    0    15.999    7.776979   21.530406    3.394704
   7 C     6.0000    0    12.011   14.007973   21.542122   10.576608
   8 C     6.0000    0    12.011   12.778139   20.156575    8.441785
   9 C     6.0000    0    12.011   14.189576   18.657455    6.840620
  10 C     6.0000    0    12.011   13.241311   17.412126    4.731496
  11 C     6.0000    0    12.011   15.040708   16.038484    2.991814
  12 C     6.0000    0    12.011    6.916398   12.095192   10.481555
  13 C     6.0000    0    12.011    6.631616   13.824669    8.254324
  14 C     6.0000    0    12.011    5.060498   13.159675    6.214553
  15 C     6.0000    0    12.011    4.641167   14.652936    4.131130
  16 C     6.0000    0    12.011    2.869738   13.777993    2.068116
  17 C     6.0000    0    12.011    2.428487   23.522366    9.375687
  18 C     6.0000    0    12.011    4.243758   22.629848    7.376924
  19 C     6.0000    0    12.011    4.716190   24.059048    5.272903
  20 C     6.0000    0    12.011    6.406172   23.437895    3.361256
  21 C     6.0000    0    12.011    6.603459   25.141105    1.098120
  22 H     1.0000    0     1.008   13.009631   21.300048   12.067224
  23 H     1.0000    0     1.008   14.161419   23.239474   10.196773
  24 H     1.0000    0     1.008   15.641641   20.801160   10.874240
  25 H     1.0000    0     1.008   15.932659   18.470939    7.192109
  26 H     1.0000    0     1.008   16.355202   17.202177    2.499163
  27 H     1.0000    0     1.008   15.726112   14.644244    3.784744
  28 H     1.0000    0     1.008   14.142521   15.563029    1.493262
  29 H     1.0000    0     1.008    8.578223   12.322715   11.184722
  30 H     1.0000    0     1.008    6.744244   10.394817    9.950353
  31 H     1.0000    0     1.008    5.699036   12.491846   11.713278
  32 H     1.0000    0     1.008    4.202940   11.590635    6.286363
  33 H     1.0000    0     1.008    2.826085   11.949305    2.060368
  34 H     1.0000    0     1.008    1.239282   14.396312    2.342693
  35 H     1.0000    0     1.008    3.489568   14.317699    0.466951
  36 H     1.0000    0     1.008    1.652377   22.113764   10.168616
  37 H     1.0000    0     1.008    1.229834   24.610281    8.693118
  38 H     1.0000    0     1.008    3.389413   24.423576   10.666370
  39 H     1.0000    0     1.008    3.799294   25.587270    5.098292
  40 H     1.0000    0     1.008    5.342256   24.697776   -0.107714
  41 H     1.0000    0     1.008    6.353070   26.853197    1.606267
  42 H     1.0000    0     1.008    8.224466   24.977833    0.351489

--------------------------------
INTERNAL COORDINATES (ANGSTROEM)
--------------------------------
 Fe     0   0   0     0.000000000000     0.00000000     0.00000000
 O      1   0   0     2.003835182843     0.00000000     0.00000000
 O      1   2   0     1.996425059951    87.23919963     0.00000000
 O      1   2   3     1.994151736955    88.98862453    92.81632139
 O      1   2   3     1.976113663229   176.45542460    74.97720610
 O      1   2   3     1.984410194491    87.17221214   183.30084462
 O      1   2   3     1.992057391242    95.45998965   270.55212126
 C      2   1   3     2.345326469812   163.18679704   332.39710517
 C      2   1   3     1.275624192307   128.83169233   347.93831019
 C      9   2   1     1.380254248318   123.94815336     8.72703698
 C      3   1   2     1.257473633918   128.93483439     9.02455870
 C     11   3   1     1.510818589375   115.69025390   177.47520260
 C      4   1   2     2.344263937785   165.19181429   177.31362078
 C      4   1   2     1.258039737051   130.18731509   181.12375000
 C     14   4   1     1.407182976730   123.19784368     0.47812659
 C      5   1   6     1.266343448674   129.12713241   268.88391240
 C     16   5   1     1.511587460255   114.45047084   179.48873478
 C      6   1   2     2.332695597372   163.96071782    73.82828503
 C      6   1   2     1.261853909928   128.83829450    89.30841492
 C     19   6   1     1.368995708540   124.34687627     8.13075907
 C      7   1   2     1.243143921676   129.60779810   273.80710594
 C     21   7   1     1.502493530768   117.25047936   183.47536946
 H      8   2   1     0.957974916164    87.59883581   245.28417819
 H      8   2   1     0.923990086527   100.60969271   134.41386963
 H      8   2   1     0.962241606874   136.23459751   358.81699662
 H     10   9   2     0.946128664612   117.82917022   182.11534966
 H     12  11   3     0.964900766919   108.17546731   126.93851565
 H     12  11   3     0.923019116812   110.80809657   248.16952522
 H     12  11   3     0.958155337093   108.54229742    10.52043042
 H     13   4  14     0.962444247736    83.68248046   150.26512954
 H     13   4  14     0.947077853188   133.49656999    40.33655141
 H     13   4  14     0.940156843298   106.43592661   258.54272965
 H     15  14   4     0.946982856233   118.13873439   180.84966121
 H     17  16   5     0.967984354212   108.90916006   154.92289539
 H     17  16   5     0.934128347712   110.68085994   274.97519598
 H     17  16   5     0.952401517218   109.70009309    37.26204294
 H     18   6   1     0.948872915621    83.86909471   173.26807804
 H     18   6   1     0.929641016737   135.95852002    58.80814396
 H     18   6   1     0.975958431492   104.75229947   279.74525896
 H     20  19   6     0.947603551070   117.21096196   176.33672097
 H     22  21   7     0.952696977008   109.72303547    94.37537631
 H     22  21   7     0.954305747651   109.58841539   214.00012044
 H     22  21   7     0.948361645154   109.89334935   334.04466063

---------------------------
INTERNAL COORDINATES (A.U.)
---------------------------
 Fe     0   0   0     0.000000000000     0.00000000     0.00000000
 O      1   0   0     3.786699713090     0.00000000     0.00000000
 O      1   2   0     3.772696610205    87.23919963     0.00000000
 O      1   2   3     3.768400652328    88.98862453    92.81632139
 O      1   2   3     3.734313633003   176.45542460    74.97720610
 O      1   2   3     3.749991804949    87.17221214   183.30084462
 O      1   2   3     3.764442912500    95.45998965   270.55212126
 C      2   1   3     4.432024722581   163.18679704   332.39710517
 C      2   1   3     2.410580373266   128.83169233   347.93831019
 C      9   2   1     2.608302524502   123.94815336     8.72703698
 C      3   1   2     2.376280788733   128.93483439     9.02455870
 C     11   3   1     2.855033371955   115.69025390   177.47520260
 C      4   1   2     4.430016828042   165.19181429   177.31362078
 C      4   1   2     2.377350568617   130.18731509   181.12375000
 C     14   4   1     2.659190446337   123.19784368     0.47812659
 C      5   1   6     2.393042309480   129.12713241   268.88391240
 C     16   5   1     2.856486327351   114.45047084   179.48873478
 C      6   1   2     4.408155832837   163.96071782    73.82828503
 C      6   1   2     2.384558310781   128.83829450    89.30841492
 C     19   6   1     2.587026967653   124.34687627     8.13075907
 C      7   1   2     2.349201557017   129.60779810   273.80710594
 C     21   7   1     2.839301291140   117.25047936   183.47536946
 H      8   2   1     1.810310234717    87.59883581   245.28417819
 H      8   2   1     1.746088213994   100.60969271   134.41386963
 H      8   2   1     1.818373111657   136.23459751   358.81699662
 H     10   9   2     1.787924063569   117.82917022   182.11534966
 H     12  11   3     1.823398195887   108.17546731   126.93851565
 H     12  11   3     1.744253347148   110.80809657   248.16952522
 H     12  11   3     1.810651180861   108.54229742    10.52043042
 H     13   4  14     1.818756047389    83.68248046   150.26512954
 H     13   4  14     1.789717770028   133.49656999    40.33655141
 H     13   4  14     1.776638956765   106.43592661   258.54272965
 H     15  14   4     1.789538251800   118.13873439   180.84966121
 H     17  16   5     1.829225331382   108.90916006   154.92289539
 H     17  16   5     1.765246751109   110.68085994   274.97519598
 H     17  16   5     1.799778037074   109.70009309    37.26204294
 H     18   6   1     1.793109946420    83.86909471   173.26807804
 H     18   6   1     1.756766924493   135.95852002    58.80814396
 H     18   6   1     1.844294153611   104.75229947   279.74525896
 H     20  19   6     1.790711195053   117.21096196   176.33672097
 H     22  21   7     1.800336375160   109.72303547    94.37537631
 H     22  21   7     1.803376511088   109.58841539   214.00012044
 H     22  21   7     1.792143785257   109.89334935   334.04466063

---------------------
BASIS SET INFORMATION
---------------------
There are 4 groups of distinct atoms

 Group   1 Type Fe  : 17s11p7d1f contracted to 6s4p4d1f pattern {842111/6311/4111/1}
 Group   2 Type O   : 11s6p2d1f contracted to 5s3p2d1f pattern {62111/411/11/1}
 Group   3 Type C   : 11s6p2d1f contracted to 5s3p2d1f pattern {62111/411/11/1}
 Group   4 Type H   : 5s1p contracted to 3s1p pattern {311/1}

Atom   0Fe   basis set group =>   1
Atom   1O    basis set group =>   2
Atom   2O    basis set group =>   2
Atom   3O    basis set group =>   2
Atom   4O    basis set group =>   2
Atom   5O    basis set group =>   2
Atom   6O    basis set group =>   2
Atom   7C    basis set group =>   3
Atom   8C    basis set group =>   3
Atom   9C    basis set group =>   3
Atom  10C    basis set group =>   3
Atom  11C    basis set group =>   3
Atom  12C    basis set group =>   3
Atom  13C    basis set group =>   3
Atom  14C    basis set group =>   3
Atom  15C    basis set group =>   3
Atom  16C    basis set group =>   3
Atom  17C    basis set group =>   3
Atom  18C    basis set group =>   3
Atom  19C    basis set group =>   3
Atom  20C    basis set group =>   3
Atom  21C    basis set group =>   3
Atom  22H    basis set group =>   4
Atom  23H    basis set group =>   4
Atom  24H    basis set group =>   4
Atom  25H    basis set group =>   4
Atom  26H    basis set group =>   4
Atom  27H    basis set group =>   4
Atom  28H    basis set group =>   4
Atom  29H    basis set group =>   4
Atom  30H    basis set group =>   4
Atom  31H    basis set group =>   4
Atom  32H    basis set group =>   4
Atom  33H    basis set group =>   4
Atom  34H    basis set group =>   4
Atom  35H    basis set group =>   4
Atom  36H    basis set group =>   4
Atom  37H    basis set group =>   4
Atom  38H    basis set group =>   4
Atom  39H    basis set group =>   4
Atom  40H    basis set group =>   4
Atom  41H    basis set group =>   4
Atom  42H    basis set group =>   4
---------------------------------
AUXILIARY/J BASIS SET INFORMATION
---------------------------------
There are 4 groups of distinct atoms

 Group   1 Type Fe  : 19s5p5d3f3g contracted to 8s5p5d2f3g pattern {121111111/11111/11111/21/111}
 Group   2 Type O   : 12s5p4d2f1g contracted to 6s4p3d1f1g pattern {711111/2111/211/2/1}
 Group   3 Type C   : 12s5p4d2f1g contracted to 6s4p3d1f1g pattern {711111/2111/211/2/1}
 Group   4 Type H   : 5s2p1d contracted to 3s1p1d pattern {311/2/1}

Atom   0Fe   basis set group =>   1
Atom   1O    basis set group =>   2
Atom   2O    basis set group =>   2
Atom   3O    basis set group =>   2
Atom   4O    basis set group =>   2
Atom   5O    basis set group =>   2
Atom   6O    basis set group =>   2
Atom   7C    basis set group =>   3
Atom   8C    basis set group =>   3
Atom   9C    basis set group =>   3
Atom  10C    basis set group =>   3
Atom  11C    basis set group =>   3
Atom  12C    basis set group =>   3
Atom  13C    basis set group =>   3
Atom  14C    basis set group =>   3
Atom  15C    basis set group =>   3
Atom  16C    basis set group =>   3
Atom  17C    basis set group =>   3
Atom  18C    basis set group =>   3
Atom  19C    basis set group =>   3
Atom  20C    basis set group =>   3
Atom  21C    basis set group =>   3
Atom  22H    basis set group =>   4
Atom  23H    basis set group =>   4
Atom  24H    basis set group =>   4
Atom  25H    basis set group =>   4
Atom  26H    basis set group =>   4
Atom  27H    basis set group =>   4
Atom  28H    basis set group =>   4
Atom  29H    basis set group =>   4
Atom  30H    basis set group =>   4
Atom  31H    basis set group =>   4
Atom  32H    basis set group =>   4
Atom  33H    basis set group =>   4
Atom  34H    basis set group =>   4
Atom  35H    basis set group =>   4
Atom  36H    basis set group =>   4
Atom  37H    basis set group =>   4
Atom  38H    basis set group =>   4
Atom  39H    basis set group =>   4
Atom  40H    basis set group =>   4
Atom  41H    basis set group =>   4
Atom  42H    basis set group =>   4


           ************************************************************
           *        Program running with 16 parallel MPI-processes    *
           *              working on a common directory               *
           ************************************************************
------------------------------------------------------------------------------
                             ORCA STARTUP CALCULATIONS
                           -- RI-GTO INTEGRALS CHOSEN --
------------------------------------------------------------------------------
------------------------------------------------------------------------------
                   ___                                                        
                  /   \      - P O W E R E D   B Y -                         
                 /     \                                                     
                 |  |  |   _    _      __       _____    __    __             
                 |  |  |  | |  | |    /  \     |  _  \  |  |  /  |          
                  \  \/   | |  | |   /    \    | | | |  |  | /  /          
                 / \  \   | |__| |  /  /\  \   | |_| |  |  |/  /          
                |  |  |   |  __  | /  /__\  \  |    /   |      \           
                |  |  |   | |  | | |   __   |  |    \   |  |\   \          
                \     /   | |  | | |  |  |  |  | |\  \  |  | \   \       
                 \___/    |_|  |_| |__|  |__|  |_| \__\ |__|  \__/        
                                                                              
                      - O R C A' S   B I G   F R I E N D -                    
                                      &                                       
                       - I N T E G R A L  F E E D E R -                       
                                                                              
 v1 FN, 2020, v2 2021, v3 2022-2024                                           
------------------------------------------------------------------------------


----------------------
SHARK INTEGRAL PACKAGE
----------------------

Number of atoms                             ...     43
Number of basis functions                   ...    822
Number of shells                            ...    330
Maximum angular momentum                    ...      3
Integral batch strategy                     ... SHARK/LIBINT Hybrid
RI-J (if used) integral strategy            ... SPLIT-RIJ (Revised 2003 algorithm where possible)
Printlevel                                  ...      1
Contraction scheme used                     ... SEGMENTED contraction
Prescreening option                         ... SCHWARTZ
   Thresh                                   ... 2.500e-11
   Tcut                                     ... 2.500e-12
   Tpresel                                  ... 2.500e-12 
Coulomb Range Separation                    ... NOT USED
Exchange Range Separation                   ... NOT USED
Multipole approximations                    ... NOT USED
Finite Nucleus Model                        ... NOT USED
CABS basis                                  ... NOT available
Auxiliary Coulomb fitting basis             ... AVAILABLE
   # of basis functions in Aux-J            ...   1349
   # of shells in Aux-J                     ...    443
   Maximum angular momentum in Aux-J        ...      4
Auxiliary J/K fitting basis                 ... NOT available
Auxiliary Correlation fitting basis         ... NOT available
Auxiliary 'external' fitting basis          ... NOT available

Checking pre-screening integrals            ... done (  0.0 sec) Dimension = 330
Check shell pair data                       ... done (  0.0 sec)
Shell pair information
Shell pair cut-off parameter TPreSel        ...   2.5e-12
Total number of shell pairs                 ...     54615
Shell pairs after pre-screening             ...     37953
Total number of primitive shell pairs       ...    170237
Primitive shell pairs kept                  ...     76666
          la=0 lb=0:  10184 shell pairs
          la=1 lb=0:  10915 shell pairs
          la=1 lb=1:   2974 shell pairs
          la=2 lb=0:   5492 shell pairs
          la=2 lb=1:   3052 shell pairs
          la=2 lb=2:    839 shell pairs
          la=3 lb=0:   2354 shell pairs
          la=3 lb=1:   1292 shell pairs
          la=3 lb=2:    698 shell pairs
          la=3 lb=3:    153 shell pairs

Calculating one electron integrals          ... done (  0.0 sec)
done (  0.2 sec)
Calculating Nuclear repulsion               ... done (  0.0 sec) ENN=   2517.346752700204 Eh

Diagonalization of the overlap matrix:
Smallest eigenvalue                        ... 6.767e-05
Time for diagonalization                   ...    0.120 sec
Threshold for overlap eigenvalues          ... 1.000e-07
Number of eigenvalues below threshold      ... 0
Time for construction of square roots      ...    0.086 sec
Total time needed                          ...    0.229 sec

-------------------
DFT GRID GENERATION
-------------------

General Integration Accuracy     IntAcc      ... 4.959
Radial Grid Type                 RadialGrid  ... OptM3 with GC (2021)
Angular Grid (max. ang.)         AngularGrid ... 6 (Lebedev-590)
Angular grid pruning method      GridPruning ... 4 (adaptive)
Weight generation scheme         WeightScheme... mBecke (2022)
Basis function cutoff            BFCut       ... 1.0000e-11
Integration weight cutoff        WCut        ... 1.0000e-14
Partially contracted basis set               ... off
Rotationally invariant grid construction     ... off
Angular grids for H and He will be reduced by one unit
Core-polarized basis detected: some atoms will have their core
                               angular grid increased.

Total number of grid points                  ...   506516
Total number of batches                      ...     7936
Average number of points per batch           ...       63
Average number of grid points per atom       ...    11779

--------------------
COSX GRID GENERATION
--------------------

GRIDX 1
-------
General Integration Accuracy     IntAcc      ... 4.020
Radial Grid Type                 RadialGrid  ... OptM3 with GC (2021)
Angular Grid (max. ang.)         AngularGrid ... 2 (Lebedev-110)
Angular grid pruning method      GridPruning ... 4 (adaptive)
Weight generation scheme         WeightScheme... mBecke (2022)
Basis function cutoff            BFCut       ... 1.0000e-11
Integration weight cutoff        WCut        ... 1.0000e-14
Partially contracted basis set               ... on
Rotationally invariant grid construction     ... off
Angular grids for H and He will be reduced by one unit
Core-polarized basis detected: some atoms will have their core
                               angular grid increased.

Total number of grid points                  ...    57901
Total number of batches                      ...      479
Average number of points per batch           ...      120
Average number of grid points per atom       ...     1347
UseSFitting                                  ... on

GRIDX 2
-------
General Integration Accuracy     IntAcc      ... 4.338
Radial Grid Type                 RadialGrid  ... OptM3 with GC (2021)
Angular Grid (max. ang.)         AngularGrid ... 3 (Lebedev-194)
Angular grid pruning method      GridPruning ... 4 (adaptive)
Weight generation scheme         WeightScheme... mBecke (2022)
Basis function cutoff            BFCut       ... 1.0000e-11
Integration weight cutoff        WCut        ... 1.0000e-14
Partially contracted basis set               ... on
Rotationally invariant grid construction     ... off
Angular grids for H and He will be reduced by one unit
Core-polarized basis detected: some atoms will have their core
                               angular grid increased.

Total number of grid points                  ...   120233
Total number of batches                      ...      962
Average number of points per batch           ...      124
Average number of grid points per atom       ...     2796
UseSFitting                                  ... on

GRIDX 3
-------
General Integration Accuracy     IntAcc      ... 4.871
Radial Grid Type                 RadialGrid  ... OptM3 with GC (2021)
Angular Grid (max. ang.)         AngularGrid ... 4 (Lebedev-302)
Angular grid pruning method      GridPruning ... 4 (adaptive)
Weight generation scheme         WeightScheme... mBecke (2022)
Basis function cutoff            BFCut       ... 1.0000e-11
Integration weight cutoff        WCut        ... 1.0000e-14
Partially contracted basis set               ... on
Rotationally invariant grid construction     ... off
Angular grids for H and He will be reduced by one unit
Core-polarized basis detected: some atoms will have their core
                               angular grid increased.

Total number of grid points                  ...   228516
Total number of batches                      ...     1809
Average number of points per batch           ...      126
Average number of grid points per atom       ...     5314
UseSFitting                                  ... on
Initializing property integral containers    ... done (  0.0 sec)

SHARK setup successfully completed in   9.0 seconds

Maximum memory used throughout the entire STARTUP-calculation: 148.8 MB


           ************************************************************
           *        Program running with 16 parallel MPI-processes    *
           *              working on a common directory               *
           ************************************************************
-------------------------------------------------------------------------------
                                 ORCA GUESS
                   Start orbitals & Density for SCF / CASSCF
-------------------------------------------------------------------------------

------------
SCF SETTINGS
------------
Hamiltonian:
 Density Functional     Method          .... DFT(GTOs)
 Exchange Functional    Exchange        .... PBE
   PBE kappa parameter   XKappa         ....  0.804000
   PBE mue parameter    XMuePBE         ....  0.219520
 Correlation Functional Correlation     .... PBE
   PBE beta parameter  CBetaPBE         ....  0.066725
 LDA part of GGA corr.  LDAOpt          .... PW91-LDA
 Gradients option       PostSCFGGA      .... off
 Hybrid DFT is turned on
   Fraction HF Exchange ScalHFX         ....  0.250000
   Scaling of DF-GGA-X  ScalDFX         ....  0.750000
   Scaling of DF-GGA-C  ScalDFC         ....  1.000000
   Scaling of DF-LDA-C  ScalLDAC        ....  1.000000
   Perturbative correction              ....  0.000000
   NL short-range parameter             ....  6.900000
 RI-approximation to the Coulomb term is turned on
   Number of AuxJ basis functions       .... 1349
   RIJ-COSX (HFX calculated with COS-X)).... on


General Settings:
 Integral files         IntName         .... FEACAC03-S6
 Hartree-Fock type      HFTyp           .... UHF
 Total Charge           Charge          ....    0
 Multiplicity           Mult            ....    6
 Number of Electrons    NEL             ....  185
 Basis Dimension        Dim             ....  822
 Nuclear Repulsion      ENuc            ....   2517.3467527002 Eh

Convergence Acceleration:
 AO-DIIS                CNVDIIS         .... on
   Start iteration      DIISMaxIt       ....    12
   Startup error        DIISStart       ....  0.200000
   # of expansion vecs  DIISMaxEq       ....     5
   Bias factor          DIISBfac        ....   1.050
   Max. coefficient     DIISMaxC        ....  10.000
 MO-DIIS                CNVKDIIS        .... off
 Trust-Rad. Augm. Hess. CNVTRAH         .... auto
   Auto Start mean grad. ratio tolernc. ....  1.125000
   Auto Start start iteration           ....    50
   Auto Start num. interpolation iter.  ....    10
   Max. Number of Micro iterations      ....    24
   Max. Number of Macro iterations      .... Maxiter - #DIIS iter
   Number of Davidson start vectors     ....     2
   Converg. threshold    (grad. norm)   ....   1.000e-05
   Grad. Scal. Fac. for Micro threshold ....   0.100
   Minimum threshold for Micro iter.    ....   1.000e-02
   NR start threshold (gradient norm)   ....   1.000e-04
   Initial trust radius                 ....   0.400
   Minimum AH scaling param. (alpha)    ....   1.000
   Maximum AH scaling param. (alpha)    .... 1000.000
   Quad. conv. algorithm                .... NR
   White noise on init. David. guess    .... on
   Maximum white noise                  ....   0.010
   Pseudo random numbers                .... off
   Inactive MOs                         .... canonical
   Orbital update algorithm             .... Taylor
   Preconditioner                       .... Diag
   Full preconditioner red. dimension   ....   250
 SOSCF                  CNVSOSCF        .... on
   Start iteration      SOSCFMaxIt      ....   150
   Startup grad/error   SOSCFStart      ....  0.003300
   Hessian update       SOSCFHessUp     .... L-BFGS
 Level Shifting         CNVShift        .... on
   Level shift para.    LevelShift      ....    0.2500
   Turn off err/grad.   ShiftErr        ....    0.0010
 Zerner damping         CNVZerner       .... off
 Static damping         CNVDamp         .... on
   Fraction old density DampFac         ....    0.7000
   Max. Damping (<1)    DampMax         ....    0.9800
   Min. Damping (>=0)   DampMin         ....    0.0000
   Turn off err/grad.   DampErr         ....    0.1000

SCF Procedure:
 Maximum # iterations   MaxIter         ....   125
 SCF integral mode      SCFMode         .... Direct
   Integral package                     .... SHARK and LIBINT hybrid scheme
 Reset frequency        DirectResetFreq ....    20
 Integral Threshold     Thresh          ....  2.500e-11 Eh
 Primitive CutOff       TCut            ....  2.500e-12 Eh

Convergence Tolerance:
 Convergence Check Mode ConvCheckMode   .... Total+1el-Energy
 Convergence forced     ConvForced      .... 0
 Energy Change          TolE            ....  1.000e-08 Eh
 1-El. energy change                    ....  1.000e-05 Eh
 Orbital Gradient       TolG            ....  1.000e-05
 Orbital Rotation angle TolX            ....  1.000e-05
 DIIS Error             TolErr          ....  5.000e-07

------------------------------
INITIAL GUESS: MODEL POTENTIAL
------------------------------
Loading Hartree-Fock densities                     ... done
Calculating cut-offs                               ... done
Initializing the effective Hamiltonian             ... done
Setting up the integral package (SHARK)            ... done
done (   0.3 sec)
Making the grid                                    ... done (   0.3 sec)
Mapping shells                                     ... done
Starting the XC term evaluation                    ... done (   0.2 sec)
  promolecular density results
     # of electrons  =    184.995741519
     EX              =   -186.605803497
     EC              =     -6.525730030
     EX+EC           =   -193.131533527
Transforming the Hamiltonian                       ... done (   0.1 sec)
done (   0.2 sec)
Back transforming the eigenvectors                 ... done (   0.1 sec)
done
                      ------------------
                      INITIAL GUESS DONE (   1.3 sec)
                      ------------------
             **** ENERGY FILE WAS UPDATED (FEACAC03-S6.en.tmp) ****
Finished Guess after   1.7 sec
Maximum memory used throughout the entire GUESS-calculation: 70.0 MB


           ************************************************************
           *        Program running with 16 parallel MPI-processes    *
           *              working on a common directory               *
           ************************************************************

-------------------------------------------------------------------------------------------
                                      ORCA LEAN-SCF
                              memory conserving SCF solver
-------------------------------------------------------------------------------------------

----------------------------------------D-I-I-S--------------------------------------------
Iteration    Energy (Eh)           Delta-E    RMSDP     MaxDP     DIISErr   Damp  Time(sec)
-------------------------------------------------------------------------------------------
               ***  Starting incremental Fock matrix formation  ***
    1    -2296.9254551643534796     0.00e+00  7.27e-04  1.33e-01  2.30e-01  0.700  17.4
Warning: op=0 Small HOMO/LUMO gap (   0.053) - skipping pre-diagonalization
         Will do a full diagonalization
    2    -2297.3823999561609526    -4.57e-01  5.23e-04  4.11e-02  6.52e-02  0.700  10.6
                               ***Turning on AO-DIIS***
    3    -2297.6272655815328108    -2.45e-01  1.93e-04  1.43e-02  2.92e-02  0.700   9.2
    4    -2297.7712716058313163    -1.44e-01  3.37e-04  2.99e-02  4.58e-02  0.000   8.7
    5    -2298.0941947783385331    -3.23e-01  1.52e-04  2.76e-02  4.93e-02  0.000   9.3
    6    -2298.1047984311862820    -1.06e-02  1.19e-04  2.60e-02  2.01e-02  0.000   8.2
    7    -2298.1064372262362667    -1.64e-03  3.05e-05  5.69e-03  7.67e-03  0.000   8.0
                              *** Initializing SOSCF ***
---------------------------------------S-O-S-C-F--------------------------------------
Iteration    Energy (Eh)           Delta-E    RMSDP     MaxDP     MaxGrad    Time(sec)
--------------------------------------------------------------------------------------
    8    -2298.1069541335755275    -5.17e-04  1.30e-05  1.90e-03  6.37e-04     8.1
               *** Restarting incremental Fock matrix formation ***
    9    -2298.1070214306073467    -6.73e-05  1.33e-05  9.47e-04  9.69e-04    16.8
   10    -2298.1070596796844256    -3.82e-05  1.55e-05  2.51e-03  3.66e-04    11.1
   11    -2298.1070509199489607     8.76e-06  9.01e-06  1.74e-03  6.16e-04    10.7
   12    -2298.1070687698065740    -1.78e-05  3.43e-06  1.96e-04  1.17e-04     9.9
   13    -2298.1070680047532733     7.65e-07  2.22e-06  1.46e-04  1.82e-04     9.1
   14    -2298.1070698395224099    -1.83e-06  9.17e-07  7.85e-05  4.76e-05     8.5
   15    -2298.1070697925879358     4.69e-08  5.28e-07  2.96e-05  6.60e-05     7.4
   16    -2298.1070699545571188    -1.62e-07  2.30e-07  2.27e-05  3.85e-06     6.7
   17    -2298.1070699623278415    -7.77e-09  1.82e-07  2.48e-05  4.46e-06     5.8
                 **** Energy Check signals convergence ****

               *****************************************************
               *                     SUCCESS                       *
               *           SCF CONVERGED AFTER  17 CYCLES          *
               *****************************************************

 done (   23.326 sec)
Old exchange energy                            :    -47.614295653 Eh
New exchange energy                            :    -47.614289060 Eh
Exchange energy change after final integration :      0.000006594 Eh
Total energy after final integration           :  -2298.107063369 Eh
             **** ENERGY FILE WAS UPDATED (FEACAC03-S6.en.tmp) ****

----------------
TOTAL SCF ENERGY
----------------

Total Energy       :      -2298.10706336881685 Eh          -62534.67240 eV

Components:
Nuclear Repulsion  :       2517.34675270020398 Eh           68500.48764 eV
Electronic Energy  :      -4815.45382266253182 Eh         -131035.16021 eV
One Electron Energy:      -8169.80212161053896 Eh         -222311.61783 eV
Two Electron Energy:       3354.34829894800714 Eh           91276.45762 eV

Virial components:
Potential Energy   :      -4595.72216002379264 Eh         -125055.95770 eV
Kinetic Energy     :       2297.61509665497579 Eh           62521.28530 eV
Virial Ratio       :          2.00021412059599

DFT components:
N(Alpha)           :       95.000020866655 electrons
N(Beta)            :       90.000021747853 electrons
N(Total)           :      185.000042614508 electrons
E(X)               :     -142.490467591391 Eh       
E(C)               :       -6.510424467097 Eh       
E(XC)              :     -149.000892058488 Eh       

---------------
SCF CONVERGENCE
---------------

  Last Energy change         ...    7.7707e-09  Tolerance :   1.0000e-08
  Last MAX-Density change    ...    2.4768e-05  Tolerance :   1.0000e-07
  Last RMS-Density change    ...    1.8196e-07  Tolerance :   5.0000e-09
  Last DIIS Error            ...    6.3733e-04  Tolerance :   5.0000e-07
  Last Orbital Gradient      ...    4.4586e-06  Tolerance :   1.0000e-05
  Last Orbital Rotation      ...    9.2969e-06  Tolerance :   1.0000e-05


----------------------
UHF SPIN CONTAMINATION
----------------------

Warning: in a DFT calculation there is little theoretical justification to 
         calculate <S**2> as in Hartree-Fock theory. We will do it anyways
         but you should keep in mind that the values have only limited relevance

Expectation value of <S**2>     :     8.757022
Ideal value S*(S+1) for S=2.5   :     8.750000
Deviation                       :     0.007022

----------------
ORBITAL ENERGIES
----------------
                 SPIN UP ORBITALS
  NO   OCC          E(Eh)            E(eV) 
   0   1.0000    -256.454065     -6978.4699 
   1   1.0000     -30.280052      -823.9621 
   2   1.0000     -26.098489      -710.1760 
   3   1.0000     -26.096696      -710.1272 
   4   1.0000     -26.096456      -710.1207 
   5   1.0000     -19.194847      -522.3183 
   6   1.0000     -19.194512      -522.3092 
   7   1.0000     -19.192221      -522.2469 
   8   1.0000     -19.190111      -522.1895 
   9   1.0000     -19.186618      -522.0944 
  10   1.0000     -19.186309      -522.0860 
  11   1.0000     -10.300314      -280.2858 
  12   1.0000     -10.296935      -280.1939 
  13   1.0000     -10.293287      -280.0946 
  14   1.0000     -10.293007      -280.0870 
  15   1.0000     -10.292036      -280.0605 
  16   1.0000     -10.288657      -279.9686 
  17   1.0000     -10.179031      -276.9855 
  18   1.0000     -10.176741      -276.9232 
  19   1.0000     -10.171547      -276.7819 
  20   1.0000     -10.170368      -276.7498 
  21   1.0000     -10.167397      -276.6690 
  22   1.0000     -10.167002      -276.6582 
  23   1.0000     -10.166493      -276.6443 
  24   1.0000     -10.165625      -276.6207 
  25   1.0000     -10.164877      -276.6004 
  26   1.0000      -3.709125      -100.9304 
  27   1.0000      -2.473182       -67.2987 
  28   1.0000      -2.468732       -67.1776 
  29   1.0000      -2.468104       -67.1605 
  30   1.0000      -1.076426       -29.2910 
  31   1.0000      -1.069938       -29.1145 
  32   1.0000      -1.066419       -29.0187 
  33   1.0000      -1.053417       -28.6649 
  34   1.0000      -1.052716       -28.6458 
  35   1.0000      -1.046046       -28.4644 
  36   1.0000      -0.820210       -22.3191 
  37   1.0000      -0.817662       -22.2497 
  38   1.0000      -0.816464       -22.2171 
  39   1.0000      -0.794079       -21.6080 
  40   1.0000      -0.793821       -21.6010 
  41   1.0000      -0.791592       -21.5403 
  42   1.0000      -0.748170       -20.3588 
  43   1.0000      -0.747981       -20.3536 
  44   1.0000      -0.746469       -20.3125 
  45   1.0000      -0.616457       -16.7746 
  46   1.0000      -0.615179       -16.7399 
  47   1.0000      -0.614448       -16.7200 
  48   1.0000      -0.583398       -15.8751 
  49   1.0000      -0.561684       -15.2842 
  50   1.0000      -0.558478       -15.1969 
  51   1.0000      -0.531563       -14.4646 
  52   1.0000      -0.530766       -14.4429 
  53   1.0000      -0.518562       -14.1108 
  54   1.0000      -0.514484       -13.9998 
  55   1.0000      -0.514176       -13.9914 
  56   1.0000      -0.511991       -13.9320 
  57   1.0000      -0.486298       -13.2328 
  58   1.0000      -0.484604       -13.1868 
  59   1.0000      -0.478041       -13.0082 
  60   1.0000      -0.475288       -12.9333 
  61   1.0000      -0.472572       -12.8593 
  62   1.0000      -0.467329       -12.7167 
  63   1.0000      -0.462588       -12.5877 
  64   1.0000      -0.460719       -12.5368 
  65   1.0000      -0.456990       -12.4353 
  66   1.0000      -0.450442       -12.2571 
  67   1.0000      -0.447098       -12.1662 
  68   1.0000      -0.443758       -12.0753 
  69   1.0000      -0.442458       -12.0399 
  70   1.0000      -0.440531       -11.9875 
  71   1.0000      -0.439415       -11.9571 
  72   1.0000      -0.427632       -11.6364 
  73   1.0000      -0.424804       -11.5595 
  74   1.0000      -0.422834       -11.5059 
  75   1.0000      -0.411265       -11.1911 
  76   1.0000      -0.408956       -11.1283 
  77   1.0000      -0.407458       -11.0875 
  78   1.0000      -0.389945       -10.6110 
  79   1.0000      -0.387438       -10.5427 
  80   1.0000      -0.385968       -10.5027 
  81   1.0000      -0.375510       -10.2181 
  82   1.0000      -0.374755       -10.1976 
  83   1.0000      -0.365015        -9.9326 
  84   1.0000      -0.361984        -9.8501 
  85   1.0000      -0.359718        -9.7884 
  86   1.0000      -0.315569        -8.5871 
  87   1.0000      -0.301835        -8.2134 
  88   1.0000      -0.300625        -8.1804 
  89   1.0000      -0.269923        -7.3450 
  90   1.0000      -0.243144        -6.6163 
  91   1.0000      -0.241217        -6.5638 
  92   1.0000      -0.237562        -6.4644 
  93   1.0000      -0.236605        -6.4384 
  94   1.0000      -0.234452        -6.3798 
  95   0.0000      -0.030377        -0.8266 
  96   0.0000      -0.025863        -0.7038 
  97   0.0000      -0.021540        -0.5861 
  98   0.0000       0.043167         1.1746 
  99   0.0000       0.069545         1.8924 
 100   0.0000       0.070602         1.9212 
 101   0.0000       0.082528         2.2457 
 102   0.0000       0.087206         2.3730 
 103   0.0000       0.087579         2.3831 
 104   0.0000       0.091858         2.4996 
 105   0.0000       0.092284         2.5112 

                 SPIN DOWN ORBITALS
  NO   OCC          E(Eh)            E(eV) 
   0   1.0000    -256.452567     -6978.4291 
   1   1.0000     -30.180058      -821.2411 
   2   1.0000     -26.013708      -707.8690 
   3   1.0000     -26.012945      -707.8482 
   4   1.0000     -26.012775      -707.8436 
   5   1.0000     -19.191156      -522.2179 
   6   1.0000     -19.190835      -522.2092 
   7   1.0000     -19.188517      -522.1461 
   8   1.0000     -19.186156      -522.0818 
   9   1.0000     -19.182594      -521.9849 
  10   1.0000     -19.182526      -521.9831 
  11   1.0000     -10.300367      -280.2872 
  12   1.0000     -10.297003      -280.1957 
  13   1.0000     -10.293360      -280.0966 
  14   1.0000     -10.293083      -280.0890 
  15   1.0000     -10.292110      -280.0626 
  16   1.0000     -10.288736      -279.9708 
  17   1.0000     -10.178629      -276.9746 
  18   1.0000     -10.176353      -276.9126 
  19   1.0000     -10.171136      -276.7707 
  20   1.0000     -10.170173      -276.7445 
  21   1.0000     -10.167191      -276.6633 
  22   1.0000     -10.166792      -276.6525 
  23   1.0000     -10.166287      -276.6387 
  24   1.0000     -10.165440      -276.6157 
  25   1.0000     -10.164664      -276.5946 
  26   1.0000      -3.471432       -94.4625 
  27   1.0000      -2.216011       -60.3007 
  28   1.0000      -2.214359       -60.2558 
  29   1.0000      -2.213944       -60.2445 
  30   1.0000      -1.069640       -29.1064 
  31   1.0000      -1.063229       -28.9319 
  32   1.0000      -1.059692       -28.8357 
  33   1.0000      -1.045877       -28.4598 
  34   1.0000      -1.045236       -28.4423 
  35   1.0000      -1.038844       -28.2684 
  36   1.0000      -0.818482       -22.2720 
  37   1.0000      -0.815907       -22.2020 
  38   1.0000      -0.814698       -22.1690 
  39   1.0000      -0.792821       -21.5737 
  40   1.0000      -0.792509       -21.5653 
  41   1.0000      -0.790262       -21.5041 
  42   1.0000      -0.747320       -20.3356 
  43   1.0000      -0.747157       -20.3312 
  44   1.0000      -0.745589       -20.2885 
  45   1.0000      -0.612716       -16.6728 
  46   1.0000      -0.610882       -16.6229 
  47   1.0000      -0.609877       -16.5956 
  48   1.0000      -0.574296       -15.6274 
  49   1.0000      -0.542183       -14.7535 
  50   1.0000      -0.538996       -14.6668 
  51   1.0000      -0.512487       -13.9455 
  52   1.0000      -0.510643       -13.8953 
  53   1.0000      -0.508214       -13.8292 
  54   1.0000      -0.507625       -13.8132 
  55   1.0000      -0.506869       -13.7926 
  56   1.0000      -0.504112       -13.7176 
  57   1.0000      -0.481528       -13.1030 
  58   1.0000      -0.479958       -13.0603 
  59   1.0000      -0.474741       -12.9184 
  60   1.0000      -0.471938       -12.8421 
  61   1.0000      -0.470275       -12.7968 
  62   1.0000      -0.461433       -12.5562 
  63   1.0000      -0.443989       -12.0816 
  64   1.0000      -0.441542       -12.0150 
  65   1.0000      -0.440077       -11.9751 
  66   1.0000      -0.439804       -11.9677 
  67   1.0000      -0.436267       -11.8714 
  68   1.0000      -0.433313       -11.7911 
  69   1.0000      -0.423467       -11.5231 
  70   1.0000      -0.414008       -11.2657 
  71   1.0000      -0.412128       -11.2146 
  72   1.0000      -0.411472       -11.1967 
  73   1.0000      -0.409343       -11.1388 
  74   1.0000      -0.406997       -11.0749 
  75   1.0000      -0.392236       -10.6733 
  76   1.0000      -0.387717       -10.5503 
  77   1.0000      -0.382750       -10.4152 
  78   1.0000      -0.371824       -10.1178 
  79   1.0000      -0.359988        -9.7958 
  80   1.0000      -0.358614        -9.7584 
  81   1.0000      -0.312865        -8.5135 
  82   1.0000      -0.309534        -8.4228 
  83   1.0000      -0.307146        -8.3579 
  84   1.0000      -0.276400        -7.5212 
  85   1.0000      -0.274113        -7.4590 
  86   1.0000      -0.256349        -6.9756 
  87   1.0000      -0.239994        -6.5306 
  88   1.0000      -0.237594        -6.4653 
  89   1.0000      -0.230840        -6.2815 
  90   0.0000      -0.084993        -2.3128 
  91   0.0000      -0.077294        -2.1033 
  92   0.0000      -0.076563        -2.0834 
  93   0.0000      -0.022366        -0.6086 
  94   0.0000      -0.020323        -0.5530 
  95   0.0000      -0.018625        -0.5068 
  96   0.0000      -0.015697        -0.4271 
  97   0.0000      -0.013119        -0.3570 
  98   0.0000       0.043700         1.1891 
  99   0.0000       0.069771         1.8986 
 100   0.0000       0.070832         1.9274 
*Only the first 10 virtual orbitals were printed.

                    ********************************
                    * MULLIKEN POPULATION ANALYSIS *
                    ********************************

--------------------------------------------
MULLIKEN ATOMIC CHARGES AND SPIN POPULATIONS
--------------------------------------------
   0 Fe:    0.663148    4.376086
   1 O :   -0.378905    0.086782
   2 O :   -0.357796    0.082081
   3 O :   -0.357619    0.081963
   4 O :   -0.365549    0.091317
   5 O :   -0.364994    0.093558
   6 O :   -0.343439    0.082102
   7 C :   -0.337152    0.007777
   8 C :    0.363900   -0.000710
   9 C :   -0.434775    0.019151
  10 C :    0.347224   -0.000463
  11 C :   -0.341775    0.008077
  12 C :   -0.340752    0.007997
  13 C :    0.359606    0.000388
  14 C :   -0.447374    0.020106
  15 C :    0.367314   -0.001389
  16 C :   -0.345966    0.008566
  17 C :   -0.346675    0.008820
  18 C :    0.361868   -0.001783
  19 C :   -0.439712    0.020345
  20 C :    0.363307   -0.000885
  21 C :   -0.344562    0.008414
  22 H :    0.135681   -0.000189
  23 H :    0.132245   -0.000370
  24 H :    0.118097    0.001279
  25 H :    0.120624   -0.000739
  26 H :    0.128415    0.000354
  27 H :    0.130550    0.000145
  28 H :    0.139517    0.000127
  29 H :    0.135956    0.000011
  30 H :    0.126599    0.000872
  31 H :    0.135399   -0.000254
  32 H :    0.120444   -0.000677
  33 H :    0.121361    0.001081
  34 H :    0.132659   -0.000285
  35 H :    0.137902   -0.000082
  36 H :    0.135159    0.000059
  37 H :    0.125071    0.000786
  38 H :    0.131597   -0.000312
  39 H :    0.116776   -0.000724
  40 H :    0.133239   -0.000255
  41 H :    0.127778    0.000696
  42 H :    0.135611    0.000177
Sum of atomic charges         :   -0.0000000
Sum of atomic spin populations:    5.0000000

-----------------------------------------------------
MULLIKEN REDUCED ORBITAL CHARGES AND SPIN POPULATIONS
-----------------------------------------------------
CHARGE
  0 Fes       :     6.677922  s :     6.677922
      pz      :     4.214679  p :    12.701587
      px      :     4.244536
      py      :     4.242373
      dz2     :     1.081924  d :     5.955359
      dxz     :     1.221421
      dyz     :     1.250526
      dx2y2   :     1.185729
      dxy     :     1.215760
      f0      :     0.000266  f :     0.001984
      f+1     :     0.000133
      f-1     :     0.000223
      f+2     :     0.000415
      f-2     :     0.000497
[...]
 85:   1387.65   0.003036   15.34  0.000683  (-0.025679  0.004253 -0.002286)
 86:   1388.15   0.000001    0.01  0.000000  (-0.000531  0.000046  0.000070)
 87:   1438.00   0.022090  111.63  0.004794  ( 0.004873 -0.068726  0.006837)
 88:   1438.07   0.022212  112.25  0.004820  ( 0.069088  0.005508  0.004079)
 89:   1447.79   0.068792  347.65  0.014828  (-0.008788  0.011194  0.120935)
 90:   1462.63   0.000053    0.27  0.000011  (-0.003338 -0.000368 -0.000045)
 91:   1462.68   0.000034    0.17  0.000007  (-0.000558  0.002614  0.000091)
 92:   1462.86   0.000007    0.04  0.000002  (-0.001144  0.000415  0.000344)
 93:   1463.35   0.003191   16.13  0.000681  (-0.001851  0.024366 -0.009131)
 94:   1463.40   0.003068   15.50  0.000654  ( 0.025399  0.000582 -0.002958)
 95:   1463.45   0.002322   11.73  0.000495  ( 0.003605  0.011376  0.018781)
 96:   1472.12   0.023139  116.94  0.004905  ( 0.019158 -0.066891  0.007978)
 97:   1472.14   0.023246  117.48  0.004928  ( 0.067460  0.019129  0.003311)
 98:   1472.96   0.000011    0.06  0.000002  ( 0.001116 -0.000885  0.000546)
 99:   1495.25   0.009761   49.33  0.002037  (-0.004500  0.044665 -0.004689)
100:   1495.32   0.009878   49.92  0.002061  (-0.045082 -0.004814 -0.002415)
101:   1503.53   0.048609  245.65  0.010089  ( 0.007199 -0.009146 -0.099767)
102:   1574.34   0.029984  151.52  0.005943  (-0.034547 -0.068783  0.004333)
103:   1574.35   0.029942  151.32  0.005935  ( 0.068820 -0.033892  0.007094)
104:   1575.64   0.167341  845.67  0.033143  (-0.013055  0.016327  0.180847)
105:   1650.55   0.201332  1017.45  0.038065  (-0.189395 -0.045694 -0.010337)
106:   1650.61   0.201207  1016.82  0.038040  (-0.045151  0.188596 -0.020812)
107:   1681.40   0.000002    0.01  0.000000  ( 0.000472  0.000278 -0.000374)
108:   3059.95   0.001775    8.97  0.000181  ( 0.003216  0.008702  0.009746)
109:   3059.98   0.001203    6.08  0.000123  (-0.008698  0.000188 -0.006852)
110:   3060.01   0.002174   10.98  0.000222  ( 0.006846  0.002732 -0.012936)
111:   3060.03   0.000738    3.73  0.000075  ( 0.006787 -0.004766 -0.002547)
112:   3060.06   0.000879    4.44  0.000090  (-0.002216  0.008365 -0.003837)
113:   3060.08   0.000297    1.50  0.000030  ( 0.001404  0.003296 -0.004177)
114:   3128.88   0.000105    0.53  0.000010  ( 0.000064 -0.002567  0.001957)
115:   3128.97   0.000321    1.62  0.000032  (-0.004296  0.002946  0.002209)
116:   3129.00   0.001272    6.43  0.000127  (-0.000384 -0.009025  0.006728)
117:   3129.06   0.000006    0.03  0.000001  (-0.000158 -0.000633 -0.000401)
118:   3129.14   0.001014    5.12  0.000101  (-0.004944  0.007032  0.005219)
119:   3129.16   0.001542    7.79  0.000154  (-0.011073 -0.003988 -0.003912)
120:   3161.51   0.008132   41.10  0.000803  ( 0.008642 -0.026792  0.003187)
121:   3161.60   0.006711   33.91  0.000662  (-0.023184 -0.011140 -0.000904)
122:   3161.64   0.000542    2.74  0.000054  ( 0.006615 -0.003106  0.000348)
123:   3161.71   0.000489    2.47  0.000048  (-0.006042 -0.003399  0.000451)
124:   3161.78   0.001590    8.03  0.000157  (-0.012341  0.001484 -0.001553)
125:   3161.87   0.000281    1.42  0.000028  (-0.005136  0.001136  0.000227)
126:   3229.55   0.002049   10.36  0.000198  ( 0.006476  0.012475 -0.000674)
127:   3229.59   0.002128   10.75  0.000206  ( 0.012652 -0.006560  0.001573)
128:   3229.67   0.000067    0.34  0.000007  ( 0.001436  0.002108 -0.000029)

* The epsilon (eps) is given for a Dirac delta lineshape.
** The dipole moment derivative (T) already includes vibrational overlap.

The first frequency considered to be a vibration is 6
The total number of vibrations considered is 123


--------------------------
THERMOCHEMISTRY AT 298.15K
--------------------------

Temperature         ...   298.15 K
Pressure            ...     1.00 atm
Total Mass          ...   353.18 AMU
Quasi RRHO          ...     True
Cut-Off Frequency   ...     1.00 cm^-1

Throughout the following assumptions are being made:
  (1) The electronic state is orbitally nondegenerate
      but the spin degeneracy is treated
  (2) There are no thermally accessible electronically excited states
  (3) Hindered rotations indicated by low frequency modes are not
      treated as such but are treated as vibrations and this may
      cause some error
  (4) All equations used are the standard statistical mechanics
      equations for an ideal gas
  (5) All vibrations are strictly harmonic

freq.      19.47  E(vib)   ...       0.57 
freq.      19.85  E(vib)   ...       0.56 
freq.      27.55  E(vib)   ...       0.55 
freq.      41.49  E(vib)   ...       0.54 
freq.      41.81  E(vib)   ...       0.53 
freq.      44.90  E(vib)   ...       0.53 
freq.      82.24  E(vib)   ...       0.48 
freq.      82.37  E(vib)   ...       0.48 
freq.      82.77  E(vib)   ...       0.48 
freq.      92.95  E(vib)   ...       0.47 
freq.      93.13  E(vib)   ...       0.47 
freq.      94.11  E(vib)   ...       0.47 
freq.     142.13  E(vib)   ...       0.41 
freq.     145.96  E(vib)   ...       0.41 
freq.     146.28  E(vib)   ...       0.41 
freq.     157.28  E(vib)   ...       0.40 
freq.     157.59  E(vib)   ...       0.40 
freq.     157.68  E(vib)   ...       0.40 
freq.     168.47  E(vib)   ...       0.38 
freq.     190.66  E(vib)   ...       0.36 
freq.     190.93  E(vib)   ...       0.36 
freq.     199.44  E(vib)   ...       0.35 
freq.     200.01  E(vib)   ...       0.35 
freq.     201.37  E(vib)   ...       0.35 
freq.     249.56  E(vib)   ...       0.31 
freq.     249.61  E(vib)   ...       0.31 
freq.     252.35  E(vib)   ...       0.30 
freq.     266.41  E(vib)   ...       0.29 
freq.     302.08  E(vib)   ...       0.26 
freq.     302.33  E(vib)   ...       0.26 
freq.     410.62  E(vib)   ...       0.19 
freq.     410.79  E(vib)   ...       0.19 
freq.     416.15  E(vib)   ...       0.18 
freq.     435.69  E(vib)   ...       0.17 
freq.     435.97  E(vib)   ...       0.17 
freq.     444.98  E(vib)   ...       0.17 
freq.     546.45  E(vib)   ...       0.12 
freq.     546.48  E(vib)   ...       0.12 
freq.     554.71  E(vib)   ...       0.12 
freq.     574.45  E(vib)   ...       0.11 
freq.     574.48  E(vib)   ...       0.11 
freq.     575.60  E(vib)   ...       0.11 
freq.     669.88  E(vib)   ...       0.08 
freq.     670.00  E(vib)   ...       0.08 
freq.     675.12  E(vib)   ...       0.08 
freq.     677.10  E(vib)   ...       0.08 
freq.     678.82  E(vib)   ...       0.08 
freq.     678.84  E(vib)   ...       0.08 
freq.     786.77  E(vib)   ...       0.05 
freq.     787.01  E(vib)   ...       0.05 
freq.     787.10  E(vib)   ...       0.05 
freq.     962.56  E(vib)   ...       0.03 
freq.     962.59  E(vib)   ...       0.03 
freq.     963.97  E(vib)   ...       0.03 
freq.     964.16  E(vib)   ...       0.03 
freq.     964.18  E(vib)   ...       0.03 
freq.     964.63  E(vib)   ...       0.03 
freq.    1029.61  E(vib)   ...       0.02 
freq.    1029.67  E(vib)   ...       0.02 
freq.    1030.42  E(vib)   ...       0.02 
freq.    1039.80  E(vib)   ...       0.02 
freq.    1040.41  E(vib)   ...       0.02 
freq.    1040.42  E(vib)   ...       0.02 
freq.    1046.95  E(vib)   ...       0.02 
freq.    1046.96  E(vib)   ...       0.02 
freq.    1050.42  E(vib)   ...       0.02 
freq.    1052.30  E(vib)   ...       0.02 
freq.    1052.31  E(vib)   ...       0.02 
freq.    1052.67  E(vib)   ...       0.02 
freq.    1215.24  E(vib)   ...       0.01 
freq.    1215.39  E(vib)   ...       0.01 
freq.    1216.59  E(vib)   ...       0.01 
freq.    1307.01  E(vib)   ...       0.01 
freq.    1307.06  E(vib)   ...       0.01 
freq.    1312.12  E(vib)   ...       0.01 
freq.    1381.99  E(vib)   ...       0.01 
freq.    1382.26  E(vib)   ...       0.01 
freq.    1382.28  E(vib)   ...       0.01 
freq.    1387.64  E(vib)   ...       0.00 
freq.    1387.65  E(vib)   ...       0.00 
freq.    1388.15  E(vib)   ...       0.00 
freq.    1438.00  E(vib)   ...       0.00 
freq.    1438.07  E(vib)   ...       0.00 
freq.    1447.79  E(vib)   ...       0.00 
freq.    1462.63  E(vib)   ...       0.00 
freq.    1462.68  E(vib)   ...       0.00 
freq.    1462.86  E(vib)   ...       0.00 
freq.    1463.35  E(vib)   ...       0.00 
freq.    1463.40  E(vib)   ...       0.00 
freq.    1463.45  E(vib)   ...       0.00 
freq.    1472.12  E(vib)   ...       0.00 
freq.    1472.14  E(vib)   ...       0.00 
freq.    1472.96  E(vib)   ...       0.00 
freq.    1495.25  E(vib)   ...       0.00 
freq.    1495.32  E(vib)   ...       0.00 
freq.    1503.53  E(vib)   ...       0.00 
freq.    1574.34  E(vib)   ...       0.00 
freq.    1574.35  E(vib)   ...       0.00 
freq.    1575.64  E(vib)   ...       0.00 
freq.    1650.55  E(vib)   ...       0.00 
freq.    1650.61  E(vib)   ...       0.00 
freq.    1681.40  E(vib)   ...       0.00 
freq.    3059.95  E(vib)   ...       0.00 
freq.    3059.98  E(vib)   ...       0.00 
freq.    3060.01  E(vib)   ...       0.00 
freq.    3060.03  E(vib)   ...       0.00 
freq.    3060.06  E(vib)   ...       0.00 
freq.    3060.08  E(vib)   ...       0.00 
freq.    3128.88  E(vib)   ...       0.00 
freq.    3128.97  E(vib)   ...       0.00 
freq.    3129.00  E(vib)   ...       0.00 
freq.    3129.06  E(vib)   ...       0.00 
freq.    3129.14  E(vib)   ...       0.00 
freq.    3129.16  E(vib)   ...       0.00 
freq.    3161.51  E(vib)   ...       0.00 
freq.    3161.60  E(vib)   ...       0.00 
freq.    3161.64  E(vib)   ...       0.00 
freq.    3161.71  E(vib)   ...       0.00 
freq.    3161.78  E(vib)   ...       0.00 
freq.    3161.87  E(vib)   ...       0.00 
freq.    3229.55  E(vib)   ...       0.00 
freq.    3229.59  E(vib)   ...       0.00 
freq.    3229.67  E(vib)   ...       0.00 

------------
INNER ENERGY
------------

The inner energy is: U= E(el) + E(ZPE) + E(vib) + E(rot) + E(trans)
    E(el)   - is the total energy from the electronic structure calculation
              = E(kin-el) + E(nuc-el) + E(el-el) + E(nuc-nuc)
    E(ZPE)  - the the zero temperature vibrational energy from the frequency calculation
    E(vib)  - the the finite temperature correction to E(ZPE) due to population
              of excited vibrational states
    E(rot)  - is the rotational thermal energy
    E(trans)- is the translational thermal energy

Summary of contributions to the inner energy U:
Electronic energy                ...  -2298.46036040 Eh
Zero point energy                ...      0.33815034 Eh     212.19 kcal/mol
Thermal vibrational correction   ...      0.02448141 Eh      15.36 kcal/mol
Thermal rotational correction    ...      0.00141627 Eh       0.89 kcal/mol
Thermal translational correction ...      0.00141627 Eh       0.89 kcal/mol
-----------------------------------------------------------------------
Total thermal energy                  -2298.09489610 Eh


Summary of corrections to the electronic energy:
(perhaps to be used in another calculation)
Total thermal correction                  0.02731396 Eh      17.14 kcal/mol
Non-thermal (ZPE) correction              0.33815034 Eh     212.19 kcal/mol
-----------------------------------------------------------------------
Total correction                          0.36546429 Eh     229.33 kcal/mol


--------
ENTHALPY
--------

The enthalpy is H = U + kB*T
                kB is Boltzmann's constant
Total thermal energy              ...  -2298.09489610 Eh 
Thermal Enthalpy correction       ...      0.00094421 Eh       0.59 kcal/mol
-----------------------------------------------------------------------
Total Enthalpy                    ...  -2298.09395189 Eh


Note: Only C1 symmetry has been detected, increase convergence thresholds 
      if your molecule has a higher symmetry. Symmetry factor of 1.0 is   
      used for the rotational entropy correction. 
 

Note: Rotational entropy computed according to Herzberg 
Infrared and Raman Spectra, Chapter V,1, Van Nostrand Reinhold, 1945 
Point Group:  C1, Symmetry Number:   1  
Rotational constants in cm-1:     0.008681     0.008653     0.006452 

Vibrational entropy computed according to the QRRHO of S. Grimme
Chem.Eur.J. 2012 18 9955 using a reference frequency of 100.0 cm-1


-------
ENTROPY
-------

The entropy contributions are T*S = T*(S(el)+S(vib)+S(rot)+S(trans))
     S(el)   - electronic entropy
     S(vib)  - vibrational entropy
     S(rot)  - rotational entropy
     S(trans)- translational entropy
The entropies will be listed as multiplied by the temperature to get
units of energy

Electronic entropy                ...      0.00169175 Eh      1.06 kcal/mol
Vibrational entropy               ...      0.04548163 Eh     28.54 kcal/mol
Rotational entropy                ...      0.01637498 Eh     10.28 kcal/mol
Translational entropy             ...      0.02065829 Eh     12.96 kcal/mol
-----------------------------------------------------------------------
Final entropy term                ...      0.08420665 Eh     52.84 kcal/mol

In case the symmetry of your molecule has not been determined correctly
or in case you have a reason to use a different symmetry number we print 
out the resulting rotational entropy values for sn=1,12:

 non-linear molecules -----------------------------------
|  sn= 1 | S(rot)=       0.01637498 Eh     10.28 kcal/mol|
|  sn= 2 | S(rot)=       0.01572052 Eh      9.86 kcal/mol|
|  sn= 3 | S(rot)=       0.01533769 Eh      9.62 kcal/mol|
|  sn= 4 | S(rot)=       0.01506606 Eh      9.45 kcal/mol|
|  sn= 5 | S(rot)=       0.01485538 Eh      9.32 kcal/mol|
|  sn= 6 | S(rot)=       0.01468323 Eh      9.21 kcal/mol|
|  sn= 7 | S(rot)=       0.01453769 Eh      9.12 kcal/mol|
|  sn= 8 | S(rot)=       0.01441161 Eh      9.04 kcal/mol|
|  sn= 9 | S(rot)=       0.01430040 Eh      8.97 kcal/mol|
|  sn=10 | S(rot)=       0.01420092 Eh      8.91 kcal/mol|
|  sn=11 | S(rot)=       0.01411093 Eh      8.85 kcal/mol|
|  sn=12 | S(rot)=       0.01402878 Eh      8.80 kcal/mol|
 linear molecules ---------------------------------------
|  Dinfh | S(rot)=       0.01008768 Eh      6.33 kcal/mol|
|  Cinfv | S(rot)=       0.01074214 Eh      6.74 kcal/mol|
 --------------------------------------------------------


-------------------
GIBBS FREE ENERGY
-------------------

The Gibbs free energy is G = H - T*S

Total enthalpy                    ...  -2298.09395189 Eh 
Total entropy correction          ...     -0.08420665 Eh    -52.84 kcal/mol
-----------------------------------------------------------------------
Final Gibbs free energy         ...  -2298.17815854 Eh

For completeness - the Gibbs free energy minus the electronic energy
G-E(el)                           ...      0.28220186 Eh    177.08 kcal/mol


Maximum memory used throughout the entire PROP-calculation: 990.0 MB

--------------------------------
SUGGESTED CITATIONS FOR THIS RUN
--------------------------------

Below you find a list of papers that are relevant to this ORCA run
We neither can nor want to force you to cite these papers, but we appreciate if you do
You receive ORCA, which is the product of decades of hard work by many enthusiastic individuals, for free
The only thing we kindly ask in return is that you cite our papers,
We deeply appreciate it, if you show your appreciation for ORCA by not just citing the generic ORCA reference.

Please note that relegating all ORCA citations to the supporting information does *not* help us.
SI sections are not indexed - citations you put there will not count into any citation statistics
But we need these citations in order to attract the funding resources that allow us to do what we are doing

Therefore, if you are a happy ORCA user, please consider citing a few of the papers listed below in the main body of your paper

In addition to the list printed below, the program has created the file FEACAC03-S6.bibtex that contains the list in bibtex format
You can import this file easily into all common literature databanks and citation aid programs


List of essential papers. We consider these as the minimum necessary citations

  1. Neese,F.
     Software update: the ORCA program system, version 5.0
     WIRES Comput. Molec. Sci., 2022 12(1)e1606
     doi.org/10.1002/wcms.1606

List of papers to cite with high priority. The work reported in these papers was absolutely
necessary for this run to complete.
Our perspective: the developers of density functionals and basis sets usually get cited in chemistry papers
Good! But without the algorithms to do something with them, the functionals or basis sets would not do anything.
Hence, in our opinion, the algorithm design and method developments papers are equally worthy of getting cited

  1. Neese,F.
     An improvement of the resolution of the identity approximation for the formation of the Coulomb matrix
     J. Comp. Chem., 2003 24(14)1740-1747
     doi.org/10.1002/jcc.10318
  2. Neese,F.; Wennmohs,F.; Hansen,A.; Becker,U.
     Efficient, approximate and parallel Hartree-Fock and hybrid DFT calculations. A 'chain-of-spheres' algorithm for the Hartree-Fock exchange
     Chem. Phys., 2009 356(1-3)98-109
     doi.org/10.1016/j.chemphys.2008.10.036
  3. Bykov,D.; Petrenko,T.; Izsak,R.; Kossmann,S.; Becker,U.; Valeev,E.; Neese,F.
     Efficient implementation of the analytic second derivatives of Hartree-Fock and hybrid DFT energies: a detailed analysis of different approximations
     Molec. Phys., 2015 113 1961-1977
     doi.org/10.1080/00268976.2015.1025114
  4. Helmich-Paris,B.; de Souza,B.; Neese,F.; Izsák,R.
     An improved chain of spheres for exchange algorithm
     J. Chem. Phys., 2021 155 104109
     doi.org/doi: 10.1063/5.0058766.
  5. Neese,F.
     The SHARK Integral Generation and Digestion System
     J. Comp. Chem., 2022  1-16
     doi.org/10.1002/jcc.26942

List of suggested additional citations. These are papers that are important in the 'surrounding' of 
of this run, or papers that preceded the highly important papers. If you like your results we are grateful for a citation.

  1. Izsak,R.; Neese,F.
     An overlap fitted chain of spheres exchange method
     J. Chem. Phys., 2011 135 144105
     doi.org/10.1063/1.3646921
  2. Izsak,R.; Hansen,A.; Neese,F.
     The resolution of identity and chain of spheres approximations for the LPNO-CCSD singles Fock term
     Molec. Phys., 2012 110 2413-2417
     doi.org/10.1080/00268976.2012.687466
  3. Neese,F.
     The ORCA program system
     WIRES Comput. Molec. Sci., 2012 2(1)73-78
     doi.org/10.1002/wcms.81
  4. Izsak,R.; Neese,F.; Klopper,W.
     Robust fitting techniques in the chain of spheres approximation to the Fock exchange: The role of the complementary space
     J. Chem. Phys., 2013 139 
     doi.org/10.1063/1.4819264
  5. Neese,F.
     Software update: the ORCA program system, version 4.0
     WIRES Comput. Molec. Sci., 2018 8(1)1-6
     doi.org/10.1002/wcms.1327
  6. Neese,F.; Wennmohs,F.; Becker,U.; Riplinger,C.
     The ORCA quantum chemistry program package
     J. Chem. Phys., 2020 152 Art. No. L224108
     doi.org/10.1063/5.0004608

List of optional additional citations

  1. Neese,F.
     Approximate second-order SCF convergence for spin unrestricted wavefunctions
     Chem. Phys. Lett., 2000 325(1-3)93-98
     doi.org/10.1016/s0009-2614(00)00662-x

Timings for individual modules:

Sum of individual times          ...     9323.152 sec (= 155.386 min)
Startup calculation              ...      249.773 sec (=   4.163 min)   2.7 %
SCF iterations                   ...     3233.799 sec (=  53.897 min)  34.7 %
Property integrals               ...     2227.320 sec (=  37.122 min)  23.9 %
SCF Response                     ...     1888.229 sec (=  31.470 min)  20.3 %
Property calculations            ...      710.116 sec (=  11.835 min)   7.6 %
SCF Gradient evaluation          ...     1013.311 sec (=  16.889 min)  10.9 %
Geometry relaxation              ...        0.603 sec (=   0.010 min)   0.0 %
                             ****ORCA TERMINATED NORMALLY****
TOTAL RUN TIME: 0 days 2 hours 36 minutes 18 seconds 611 msec
