
                                 *****************
                                 * O   R   C   A *
                                 *****************

                                            #,                                       
                                            ###                                      
                                            ####                                     
                                            #####                                    
                                            ######                                   
                                           ########,                                 
                                     ,,################,,,,,                         
                               ,,#################################,,                 
                          ,,##########################################,,             
                       ,#########################################, ''#####,          
                    ,#############################################,,   '####,        
                  ,##################################################,,,,####,       
                ,###########''''           ''''###############################       
              ,#####''   ,,,,##########,,,,          '''####'''          '####       
            ,##' ,,,,###########################,,,                        '##       
           ' ,,###''''                  '''############,,,                           
         ,,##''                                '''############,,,,        ,,,,,,###''
      ,#''                                            '''#######################'''  
     '                                                          ''''####''''         
             ,#######,   #######,   ,#######,      ##                                
            ,#'     '#,  ##    ##  ,#'     '#,    #''#        ,####,   ,####,        
            ##       ##  ##   ,#'  ##            #'  '#       #'       #'  '#        
            ##       ##  #######   ##           ,######,      #####,   #    #        
            '#,     ,#'  ##    ##  '#,     ,#' ,#      #,     #,   #   #,  ,#        
             '#######'   ##     ##  '#######'  #'      '#     '####' # '####'        



                #########################################################
                #                        -***-                          #
                #          Department of theory and spectroscopy        #
                #                                                       #
                #                      Frank Neese                      #
                #                                                       #
                #     Directorship, Architecture, Infrastructure        #
                #                    SHARK, DRIVERS                     #
                #        Core code/Algorithms in most modules           #
                #                                                       #
                #        Max Planck Institute fuer Kohlenforschung      #
                #                Kaiser Wilhelm Platz 1                 #
                #                 D-45470 Muelheim/Ruhr                 #
                #                      Germany                          #
                #                                                       #
                #                  All rights reserved                  #
                #                        -***-                          #
                #########################################################


                         Program Version 6.0.1  -  RELEASE   -


 With contributions from (in alphabetic order):
[Max-Planck-Institut fuer Kohlenforschung]                               
  Daniel Aravena         : Magnetic Suceptibility                        
  Michael Atanasov       : Ab Initio Ligand Field Theory (pilot matlab implementation)
  Alexander A. Auer      : GIAO ZORA, VPT2 properties, NMR spectrum      
  Ute Becker             : All parallelization in ORCA, NUMFREQ, NUMCALC 
  Giovanni Bistoni       : ED, misc. LED, open-shell LED, HFLD           
  Martin Brehm           : Molecular dynamics                            
  Dmytro Bykov           : pre 5.0 version of the SCF Hessian            
  Marcos Casanova-Páez   : Triplet and SCS-CIS(D). UHF-(DLPNO)-IP/EA/STEOM-CCSD. UHF-CVS-IP/STEOM-CCSD   
  Vijay G. Chilkuri      : MRCI spin determinant printing, contributions to CSF-ICE 
  Pauline Colinet        : FMM embedding                                 
  Dipayan Datta          : RHF DLPNO-CCSD density                        
  Achintya Kumar Dutta   : EOM-CC, STEOM-CC                              
  Nicolas Foglia         : Exact transition moments, OPA infrastructure, MCD improvements    
  Dmitry Ganyushin       : Spin-Orbit,Spin-Spin,Magnetic field MRCI      
  Miquel Garcia-Rates    : C-PCM and meta-GGA Hessian, CCSD/C-PCM, Gaussian charge scheme 
  Tiago L. C. Gouveia    : GS-ROHF, GS-ROCIS                             
  Yang Guo               : DLPNO-NEVPT2, F12-NEVPT2, CIM, IAO-localization        
  Andreas Hansen         : Spin unrestricted coupled pair/coupled cluster methods 
  Ingolf Harden          : AUTO-CI MPn and infrastructure                
  Benjamin Helmich-Paris : MC-RPA, TRAH-(SCF,CASSCF), AVAS, COSX integrals, SCF dyn. polar. 
  Lee Huntington         : MR-EOM, pCC                                   
  Robert Izsak           : Overlap fitted RIJCOSX, COSX-SCS-MP3, EOM     
  Riya Kayal             : Wick's Theorem for AUTO-CI, AUTO-CI UHF-CCSDT 
  Emily Kempfer          : AUTO-CI, RHF CISDT and CCSDT                  
  Christian Kollmar      : KDIIS, OOCD, Brueckner-CCSD(T), CCSD density, CASPT2, CASPT2-K, improved NEVPT2 
  Axel Koslowski         : Symmetry handling                             
  Simone Kossmann        : meta-GGA functionals, TD-DFT gradient, OOMP2, (MP2 Hessian; deprecated post 5.0) 
  Lucas Lang             : DCDCAS                                        
  Marvin Lechner         : AUTO-CI (C++ implementation), FIC-MRCC        
  Spencer Leger          : CASSCF response                               
  Dagmar Lenk            : GEPOL surface, SMD, ORCA-2-JSON               
  Dimitrios Liakos       : Extrapolation schemes; Compound Job, initial MDCI parallelization 
  Dimitrios Manganas     : Further ROCIS development; embedding schemes. LFT, Crystal Embedding 
  Dimitrios Pantazis     : SARC Basis sets                               
  Anastasios Papadopoulos: AUTO-CI, single reference methods and gradients 
  Taras Petrenko         : pre 6.0 DFT Hessian and TD-DFT gradient, (ASA, deprecated), ECA, 1-Electron XAS/XES, NRVS 
  Peter Pinski           : DLPNO-MP2, DLPNO-MP2 Gradient                 
  Christoph Reimann      : Effective Core Potentials                     
  Marius Retegan         : Local ZFS, SOC                                
  Christoph Riplinger    : Optimizer, TS searches, QM/MM, DLPNO-CCSD(T), (RO)-DLPNO pert. Triples 
  Michael Roemelt        : Original ROCIS implementation                 
  Masaaki Saitow         : Open-shell DLPNO-CCSD energy and density      
  Barbara Sandhoefer     : DKH picture change effects                    
  Kantharuban Sivalingam : CASSCF convergence/infrastructure, NEVPT2 and variants, FIC-MRCI 
  Bernardo de Souza      : ESD, SOC TD-DFT                               
  Georgi L. Stoychev     : AutoAux, RI-MP2 NMR, DLPNO-MP2 response, X2C  
  Van Anh Tran           : RI-MP2 g-tensors                              
  Willem Van den Heuvel  : Paramagnetic NMR                              
  Zikuan Wang            : NOTCH, Electric field optimization            
  Frank Wennmohs         : Technical directorship and infrastructure     
  Hang Xu                : AUTO-CI-Response properties                   
                                                                         
[FACCTs GmbH]                                                            
  Markus Bursch, Miquel Garcia-Rates, Christoph Riplinger, Bernardo de Souza, Georgi L. Stoychev 
                                                                 
  APM, Basis sets (HGBS, AHGBS, def-TZVP (Ac-Lr), def2-XVPD (La-Lu)), CI-OPT, improved COSX, DLPNO-Multilevel,           
  DOCKER, DRACO, updates on ESD, GOAT, IRC, LR-CPCM, MBIS, meta-GGA TD-DFT gradient, ML-optimized integration grids, 
  MM, NACMEs, nearIR, NEB, NEB-TS, NL-DFT gradient (VV10), 2- and 3-layer-ONIOM, interface openCOSMO-RS, QMMM,   
  Crystal-QMMM, SF, symmetry and pop. for TD-DFT, r2SCAN hybrids, SOLVATOR                                   
                                                                         
[Other institutions]                                                     
  V. Asgeirsson          : NEB                                           
  Christoph Bannwarth    : sTDA-DFT, sTD-DFT, PBEh-3c, B97-3c, D3        
  Sebastian Ehlert       : rSCAN, r2SCAN, r2SCAN-3c, D4, dhf basis sets  
  Marvin Friede          : D4 for Fr, Ra, Ac-Lr                          
  Lars Goerigk           : TD-DFT with DH, B97 family of functionals     
  Stefan Grimme          : VdW corrections, initial TS optimization, DFT functionals, gCP, sTDA/sTD-DF 
  Waldemar Hujo          : DFT-NL                                        
  H. Jonsson             : NEB                                           
  Holger Kruse           : gCP                                           
  Marcel Mueller         : wB97X-3c, vDZP basis set                      
  Hagen Neugebauer       : wr2SCAN                                       
  Tobias Risthaus        : range-separated hybrid DFT                    
  Lukas Wittmann         : regularized MP2, r2SCAN double-hybrids, wr2SCAN        
                                                                         
We gratefully acknowledge several colleagues who have allowed us to      
interface, adapt or use parts of their codes:                            
  Ed Valeev, F. Pavosevic, A. Kumar             : LibInt (2-el integral package), F12 methods 
  Garnet Chan, S. Sharma, J. Yang, R. Olivares  : DMRG                   
  Ulf Ekstrom                                   : XCFun DFT Library      
  Mihaly Kallay                                 : mrcc  (arbitrary order and MRCC methods)
  Frank Weinhold                                : gennbo (NPA and NBO analysis)           
  Simon Mueller                                 : openCOSMO-RS                            
  Christopher J. Cramer and Donald G. Truhlar   : smd solvation model                     
  S Lehtola, MJT Oliveira, MAL Marques          : LibXC Library                           
  Liviu Ungur et al                             : ANISO software                          


 Your calculation uses the libint2 library for the computation of 2-el integrals
 For citations please refer to: http://libint.valeyev.net

 Your ORCA version has been built with support for libXC version: 6.2.2
 For citations please refer to: https://libxc.gitlab.io

 This ORCA versions uses:
   CBLAS   interface :  Fast vector & matrix operations
   LAPACKE interface :  Fast linear algebra routines
   SCALAPACK package :  Parallel linear algebra routines
   Shared memory     :  Shared parallel matrices
   BLAS/LAPACK       :  OpenBLAS 0.3.27  USE64BITINT DYNAMIC_ARCH NO_AFFINITY Cooperlake SINGLE_THREADED
        Core in use  :  Cooperlake
   Copyright (c) 2011-2014, The OpenBLAS Project


NOTE: MaxCore=3600 MB was set to SCF,MP2,MDCI,CIPSI,MRCI and CIS
      => If you want to overwrite this, your respective input block should be placed after the MaxCore statement
Warning: RI is on but no J-basis has been assigned. Assigning Def2/J (nothing to worry about!)
================================================================================

cite the ECPs for I  [Def2-ECP] as follows:
Ce-Yb(ecp-28): M. Dolg, H. Stoll, H.Preuss, J. Chem. Phys., 1989, 90, 1730-1734.
Y-Cd(ecp-28), Hf-Hg(ecp-46): D. Andrae,U. Haeussermann, M. Dolg, H. Stoll, H. Preuss, Theor. Chim. Acta, 1990, 77, 123-141.
In-Sb(ecp-28), Tl-Bi(ecp-46): B. Metz, H. Stoll, M. Dolg, J. Chem. Phys., 2000, 113, 2563-2569.
Te-Xe(ecp-28), Po-Rn(ecp-46): K. A. Peterson, D. Figgen, E. Goll, H. Stoll, M. Dolg, J. Chem. Phys., 2003, 119, 11113-11123.
Rb(ecp-28), Cs(ecp-46): T. Leininger, A. Nicklass, W. Kuechle, H. Stoll, M. Dolg, A. Bergner, Chem. Phys. Lett., 1996, 255, 274-280.
Sr(ecp-28), Ba(ecp-46): M. Kaupp, P. V. Schleyer, H. Stoll and H. Preuss, J. Chem. Phys., 1991, 94, 1360-1366.
La(ecp-46): M. Dolg, H. Stoll, A. Savin, H. Preuss, Theor. Chim. Acta, 1989, 75, 173-194.
Lu(ecp-28): X. Cao, M. Dolg, J. Chem. Phys., 2001, 115, 7348-7355.

ECP parameters for I  [Def2-ECP] have been obtained from:
TURBOMOLE (7.0.2)

----- Orbital basis set information -----
Your calculation utilizes the basis: def2-TZVP
   F. Weigend and R. Ahlrichs, Phys. Chem. Chem. Phys. 7, 3297 (2005).

----- AuxJ basis set information -----
Your calculation utilizes the auxiliary basis: def2/J
   F. Weigend, Phys. Chem. Chem. Phys. 8, 1057 (2006).

================================================================================
                                        WARNINGS
                       Please study these warnings very carefully!
================================================================================


WARNING: your system is open-shell and RHF/RKS was chosen
  ===> : WILL SWITCH to UHF/UKS


WARNING: Geometry Optimization
  ===> : Switching off AutoStart
         For restart on a previous wavefunction, please use MOREAD

================================================================================
                                       INPUT FILE
================================================================================
NAME = GEDTUE-S4.inp
|  1> ! PBE0 def2-TZVP  Opt Freq DEFGRID3
|  2> 
|  3> %maxcore 3600
|  4> 
|  5> %pal
|  6>     nprocs 16
|  7> end
|  8> 
|  9> *xyz 0 6
| 10> I 3.3963 1.6347 3.047
| 11> Fe 2.4795 3.455 1.3668
| 12> S 2.3347 2.5271 -0.7259
| 13> S 0.2862 2.8428 1.1948
| 14> S 4.3353 4.6752 0.9361
| 15> S 2.1831 5.3427 2.6172
| 16> N -0.147 1.5057 -1.108
| 17> N 4.4736 6.7936 2.605
| 18> C 0.6745 2.1858 -0.3343
| 19> C -1.5105 1.2345 -0.6591
| 20> C -2.5002 2.3351 -0.864
| 21> C -3.8408 1.9369 -0.2727
| 22> C 0.2818 0.9891 -2.4331
| 23> C -0.4645 1.6521 -3.6192
| 24> C -0.2244 3.1202 -3.6635
| 25> C 3.7971 5.7721 2.1361
| 26> C 3.8687 7.6373 3.6844
| 27> C 4.5027 7.5045 5.0129
| 28> C 4.5768 6.1588 5.4931
| 29> C 5.8221 7.0442 2.1578
| 30> C 5.9774 8.3157 1.3581
| 31> C 5.2027 8.2756 0.1103
| 32> H -1.8669 0.3643 -1.1905
| 33> H -1.4731 1.0183 0.3986
| 34> H -2.1453 3.2315 -0.3786
| 35> H -2.6166 2.5193 -1.9216
| 36> H -4.555 2.7337 -0.4255
| 37> H -3.7272 1.7526 0.785
| 38> H -4.1982 1.0386 -0.7581
| 39> H 1.3396 1.1736 -2.5477
| 40> H 0.095 -0.0731 -2.4635
| 41> H -1.5268 1.4747 -3.5107
| 42> H -0.1192 1.2113 -4.5431
| 43> H -0.758 3.5471 -4.4989
| 44> H 0.8334 3.3049 -3.7773
| 45> H -0.5715 3.5682 -2.7448
| 46> H 2.8286 7.3654 3.7781
| 47> H 3.9431 8.6717 3.383
| 48> H 3.9278 8.084 5.7215
| 49> H 5.5068 7.8999 4.953
| 50> H 3.5817 5.7492 5.5713
| 51> H 5.1607 5.565 4.8028
| 52> H 5.0518 6.149 6.463
| 53> H 6.4631 7.1106 3.0244
| 54> H 6.1372 6.2152 1.5404
| 55> H 7.021 8.4572 1.1193
| 56> H 5.6279 9.1474 1.9529
| 57> H 5.338 9.1941 -0.4333
| 58> H 4.1561 8.1335 0.336
| 59> H 5.5488 7.4451 -0.4976
| 60> *
| 61> 
| 62>                          ****END OF INPUT****
================================================================================

                       *****************************
                       * Geometry Optimization Run *
                       *****************************

Geometry optimization settings:
Update method            Update   .... BFGS
Choice of coordinates    CoordSys .... (2022) Redundant Internals
Initial Hessian          InHess   .... Almloef's Model
Max. no of cycles        MaxIter  .... 150

Convergence Tolerances:
Energy Change            TolE     ....  5.0000e-06 Eh
Max. Gradient            TolMAXG  ....  3.0000e-04 Eh/bohr
RMS Gradient             TolRMSG  ....  1.0000e-04 Eh/bohr
Max. Displacement        TolMAXD  ....  4.0000e-03 bohr
RMS Displacement         TolRMSD  ....  2.0000e-03 bohr
Strict Convergence                .... False

------------------------------------------------------------------------------
                        ORCA OPTIMIZATION COORDINATE SETUP
------------------------------------------------------------------------------

The optimization will be done in redundant internal coordinates (2022)
Making redundant internal coordinates   ...  (2022 redundants) done
Evaluating the initial hessian          ...  (Almloef) done
Evaluating the coordinates              ...  done
Calculating the B-matrix                .... done
Calculating the G-matrix                .... done
Diagonalizing the G-matrix              .... done
Small eigenvalue found = 2.911e-03
Small eigenvalue found = 4.695e-03
Small eigenvalue found = 6.026e-03
Small eigenvalue found = 7.439e-03
Small eigenvalue found = 9.600e-03
Small eigenvalue found = 1.468e-02
Small eigenvalue found = 1.795e-02
Small eigenvalue found = 1.945e-02
Small eigenvalue found = 2.233e-02
Small eigenvalue found = 2.671e-02
The first mode is                       ....  160
The number of degrees of freedom        ....  144

    -----------------------------------------------------------------
                    Redundant Internal Coordinates


    -----------------------------------------------------------------
         Definition                    Initial Value    Approx d2E/dq
    -----------------------------------------------------------------
      1. B(Fe  1,I   0)                  2.6414         0.214191   
      2. B(S   2,Fe  1)                  2.2938         0.616214   
      3. B(S   3,Fe  1)                  2.2836         0.639604   
      4. B(S   4,Fe  1)                  2.2624         0.691508   
      5. B(S   5,Fe  1)                  2.2836         0.639693   
      6. B(C   8,S   2)                  1.7396         0.466435   
      7. B(C   8,Fe  1)                  2.7862         0.037445   
      8. B(C   8,S   3)                  1.7090         0.521931   
      9. B(C   8,N   6)                  1.3176         0.730165   
     10. B(C   9,N   6)                  1.4609         0.431299   
     11. B(C  10,C   9)                  1.4943         0.425990   
     12. B(C  11,C  10)                  1.5184         0.389900   
     13. B(C  12,N   6)                  1.4855         0.394050   
     14. B(C  13,C  12)                  1.5503         0.346755   
     15. B(C  14,C  13)                  1.4883         0.435477   
     16. B(C  15,N   7)                  1.3119         0.745658   
     17. B(C  15,S   5)                  1.7381         0.469035   
     18. B(C  15,S   4)                  1.7126         0.515096   
     19. B(C  15,Fe  1)                  2.7743         0.039108   
     20. B(C  16,N   7)                  1.4976         0.376868   
     21. B(C  17,C  16)                  1.4780         0.452199   
     22. B(C  18,C  17)                  1.4307         0.537966   
     23. B(C  19,N   7)                  1.4427         0.461185   
     24. B(C  20,C  19)                  1.5101         0.401933   
     25. B(C  21,C  20)                  1.4693         0.466937   
     26. B(H  22,C   9)                  1.0801         0.373413   
     27. B(H  23,C   9)                  1.0802         0.373276   
     28. B(H  24,C  10)                  1.0794         0.374402   
     29. B(H  25,C  10)                  1.0798         0.373831   
     30. B(H  26,C  11)                  1.0809         0.372358   
     31. B(H  27,C  11)                  1.0796         0.374083   
     32. B(H  28,C  11)                  1.0818         0.371113   
     33. B(H  29,C  12)                  1.0799         0.373756   
     34. B(H  30,C  12)                  1.0789         0.375048   
     35. B(H  31,C  13)                  1.0825         0.370211   
     36. B(H  32,C  13)                  1.0803         0.373113   
     37. B(H  33,C  14)                  1.0793         0.374551   
     38. B(H  34,C  14)                  1.0798         0.373826   
     39. B(H  35,C  14)                  1.0794         0.374343   
     40. B(H  36,C  16)                  1.0791         0.374773   
     41. B(H  37,C  16)                  1.0800         0.373600   
     42. B(H  38,C  17)                  1.0809         0.372279   
     43. B(H  39,C  17)                  1.0808         0.372467   
     44. B(H  40,C  18)                  1.0789         0.375032   
     45. B(H  41,C  18)                  1.0817         0.371264   
     46. B(H  42,C  18)                  1.0800         0.373558   
     47. B(H  43,C  19)                  1.0799         0.373647   
     48. B(H  44,C  19)                  1.0806         0.372742   
     49. B(H  45,C  20)                  1.0799         0.373734   
     50. B(H  46,C  20)                  1.0806         0.372774   
     51. B(H  47,C  21)                  1.0758         0.379316   
     52. B(H  48,C  21)                  1.0800         0.373508   
     53. B(H  49,C  21)                  1.0858         0.365640   
     54. A(S   4,Fe  1,C  15)           38.0714         0.354154   
     55. A(I   0,Fe  1,C  15)          103.5526         0.294459   
     56. A(S   2,Fe  1,C   8)           38.5364         0.344797   
     57. A(S   2,Fe  1,S   4)           95.5248         0.608900   
     58. A(C   8,Fe  1,C  15)          149.0312         0.219459   
     59. A(S   3,Fe  1,C   8)           37.7835         0.346963   
     60. A(S   5,Fe  1,C   8)          128.8140         0.346971   
     61. A(S   4,Fe  1,S   5)           76.4007         0.613319   
     62. A(S   3,Fe  1,S   4)          156.6484         0.613302   
     63. A(S   2,Fe  1,S   5)          145.6666         0.599815   
     64. A(S   2,Fe  1,C  15)          128.3768         0.347325   
     65. A(I   0,Fe  1,S   4)          102.0092         0.502502   
     66. A(I   0,Fe  1,S   2)          108.8730         0.491852   
     67. A(I   0,Fe  1,C   8)          107.4158         0.292448   
     68. A(S   4,Fe  1,C   8)          131.3668         0.351559   
     69. A(S   2,Fe  1,S   3)           76.2435         0.599799   
     70. A(I   0,Fe  1,S   5)          105.4511         0.495276   
     71. A(I   0,Fe  1,S   3)          101.3337         0.495264   
     72. A(S   3,Fe  1,C  15)          134.5016         0.349513   
     73. A(S   3,Fe  1,S   5)           97.9429         0.604141   
     74. A(S   5,Fe  1,C  15)           38.6848         0.349521   
     75. A(Fe  1,S   2,C   8)           86.2292         0.508504   
     76. A(Fe  1,S   3,C   8)           87.2618         0.522959   
     77. A(Fe  1,S   4,C  15)           87.3787         0.529375   
     78. A(Fe  1,S   5,C  15)           86.1083         0.512602   
     79. A(C   8,N   6,C  12)          121.5571         0.406870   
     80. A(C   8,N   6,C   9)          119.8224         0.413435   
     81. A(C   9,N   6,C  12)          118.6177         0.371163   
     82. A(C  16,N   7,C  19)          120.2060         0.372598   
     83. A(C  15,N   7,C  16)          119.2093         0.405178   
     84. A(C  15,N   7,C  19)          120.4301         0.419962   
     85. A(S   3,C   8,N   6)          125.6043         0.454537   
     86. A(S   2,C   8,S   3)          110.0500         0.445397   
     87. A(S   2,C   8,N   6)          124.3418         0.445354   
     88. A(Fe  1,C   8,S   2)           55.2344         0.300857   
     89. A(Fe  1,C   8,S   3)           54.9547         0.306317   
     90. A(C  10,C   9,H  23)          107.7350         0.333397   
     91. A(N   6,C   9,H  23)          107.8011         0.332066   
     92. A(C  10,C   9,H  22)          107.9023         0.333417   
     93. A(N   6,C   9,H  22)          107.8396         0.332086   
     94. A(N   6,C   9,C  10)          116.0600         0.378567   
     95. A(H  22,C   9,H  23)          109.3844         0.294167   
     96. A(H  24,C  10,H  25)          109.5253         0.294359   
     97. A(C   9,C  10,H  25)          109.3505         0.333479   
     98. A(C  11,C  10,H  24)          109.4491         0.328712   
     99. A(C   9,C  10,H  24)          109.4050         0.333563   
    100. A(C   9,C  10,C  11)          109.7689         0.374376   
    101. A(C  11,C  10,H  25)          109.3285         0.328629   
    102. A(C  10,C  11,H  27)          109.4747         0.328666   
    103. A(C  10,C  11,H  26)          109.5735         0.328415   
    104. A(H  26,C  11,H  27)          109.5032         0.294136   
    105. A(H  27,C  11,H  28)          109.4263         0.293980   
    106. A(H  26,C  11,H  28)          109.2932         0.293766   
    107. A(C  10,C  11,H  28)          109.5562         0.328234   
    108. A(N   6,C  12,C  13)          113.2534         0.359795   
    109. A(H  29,C  12,H  30)          109.5611         0.294429   
    110. A(C  13,C  12,H  30)          108.4291         0.322524   
    111. A(N   6,C  12,H  30)          108.5138         0.327403   
    112. A(C  13,C  12,H  29)          108.4995         0.322342   
    113. A(N   6,C  12,H  29)          108.5428         0.327217   
    114. A(C  12,C  13,C  14)          111.5296         0.368290   
    115. A(C  14,C  13,H  32)          108.9942         0.334594   
    116. A(H  31,C  13,H  32)          109.4218         0.293747   
    117. A(C  12,C  13,H  32)          109.0225         0.322251   
    118. A(C  14,C  13,H  31)          108.8428         0.334160   
    119. A(C  12,C  13,H  31)          109.0052         0.321839   
    120. A(H  34,C  14,H  35)          109.4937         0.294351   
    121. A(C  13,C  14,H  35)          109.4022         0.334777   
    122. A(H  33,C  14,H  35)          109.6108         0.294441   
    123. A(H  33,C  14,H  34)          109.5780         0.294376   
    124. A(C  13,C  14,H  34)          109.2631         0.334700   
    125. A(C  13,C  14,H  33)          109.4788         0.334808   
    126. A(S   5,C  15,N   7)          124.9114         0.447502   
    127. A(S   4,C  15,N   7)          125.9537         0.455184   
    128. A(Fe  1,C  15,N   7)          173.9123         0.309484   
    129. A(S   4,C  15,S   5)          109.1203         0.444783   
    130. A(Fe  1,C  15,S   5)           55.2069         0.303221   
    131. A(Fe  1,C  15,S   4)           54.5499         0.307811   
    132. A(N   7,C  16,C  17)          115.0850         0.373680   
    133. A(C  17,C  16,H  37)          107.9000         0.336770   
    134. A(N   7,C  16,H  37)          108.0963         0.324803   
    135. A(C  17,C  16,H  36)          108.2255         0.336946   
    136. A(N   7,C  16,H  36)          108.0555         0.324970   
    137. A(H  36,C  16,H  37)          109.3877         0.294376   
    138. A(C  16,C  17,C  18)          114.1049         0.400121   
    139. A(H  38,C  17,H  39)          109.5303         0.293925   
    140. A(C  18,C  17,H  39)          108.3355         0.346527   
    141. A(C  16,C  17,H  39)          108.4107         0.336600   
    142. A(C  18,C  17,H  38)          108.1658         0.346497   
    143. A(C  16,C  17,H  38)          108.2351         0.336572   
    144. A(H  41,C  18,H  42)          109.3120         0.293934   
    145. A(H  40,C  18,H  42)          109.7003         0.294403   
    146. A(C  17,C  18,H  42)          109.4343         0.346697   
    147. A(H  40,C  18,H  41)          109.6157         0.294117   
    148. A(C  17,C  18,H  41)          109.2747         0.346338   
    149. A(C  17,C  18,H  40)          109.4892         0.346927   
    150. A(C  20,C  19,H  44)          108.2641         0.330124   
    151. A(N   7,C  19,H  44)          108.4461         0.335700   
    152. A(C  20,C  19,H  43)          108.1884         0.330257   
    153. A(N   7,C  19,H  43)          108.4662         0.335836   
    154. A(N   7,C  19,C  20)          113.9885         0.379149   
    155. A(H  43,C  19,H  44)          109.4247         0.294129   
    156. A(H  45,C  20,H  46)          109.4776         0.294144   
    157. A(C  21,C  20,H  46)          108.5384         0.338451   
    158. A(C  19,C  20,H  46)          108.8632         0.330129   
    159. A(C  21,C  20,H  45)          108.9853         0.338596   
    160. A(C  19,C  20,H  45)          109.0761         0.330269   
    161. A(C  19,C  20,C  21)          111.8724         0.382378   
    162. A(H  48,C  21,H  49)          108.9795         0.293221   
    163. A(H  47,C  21,H  49)          109.2701         0.293935   
    164. A(C  20,C  21,H  49)          109.1635         0.337362   
    165. A(H  47,C  21,H  48)          109.8635         0.294925   
    166. A(C  20,C  21,H  48)          109.6976         0.338562   
    167. A(C  20,C  21,H  47)          109.8465         0.339435   
    168. D(C   8,S   2,Fe  1,S   5)    -86.8785         0.002175   
    169. D(C   8,S   2,Fe  1,S   4)   -160.7842         0.002175   
    170. D(C   8,S   2,Fe  1,I   0)     94.5025         0.002175   
    171. D(C   8,S   2,Fe  1,C  15)   -139.5793         0.002175   
    172. D(C   8,S   2,Fe  1,S   3)     -2.9746         0.002175   
    173. D(C   8,S   3,Fe  1,I   0)   -103.8678         0.002225   
    174. D(C   8,S   3,Fe  1,S   4)     74.5440         0.002225   
    175. D(C   8,S   3,Fe  1,S   2)      3.0248         0.002225   
    176. D(C   8,S   3,Fe  1,C  15)    133.9869         0.002225   
    177. D(C   8,S   3,Fe  1,S   5)    148.5356         0.002225   
    178. D(C  15,S   4,Fe  1,S   3)     84.8759         0.002344   
    179. D(C  15,S   4,Fe  1,S   5)      6.5088         0.002344   
    180. D(C  15,S   4,Fe  1,I   0)    -96.7161         0.002344   
    181. D(C  15,S   4,Fe  1,C   8)    136.7674         0.002344   
    182. D(C  15,S   4,Fe  1,S   2)    152.6234         0.002344   
    183. D(C  15,S   5,Fe  1,S   4)     -6.4210         0.002226   
    184. D(C  15,S   5,Fe  1,C   8)   -139.1108         0.002226   
    185. D(C  15,S   5,Fe  1,S   3)   -163.3425         0.002226   
    186. D(C  15,S   5,Fe  1,S   2)    -86.1350         0.002226   
    187. D(C  15,S   5,Fe  1,I   0)     92.5092         0.002226   
    188. D(C  12,N   6,Fe  1,S   4)     27.5687         0.001500   
    189. D(C  12,N   6,Fe  1,S   3)    176.4152         0.001500   
    190. D(C   9,N   6,Fe  1,S   2)   -179.4560         0.001500   
    191. D(C   9,N   6,Fe  1,C  15)   -100.5340         0.001500   
    192. D(C   9,N   6,Fe  1,S   5)    -46.6791         0.001500   
    193. D(C   9,N   6,Fe  1,I   0)     80.3865         0.001500   
    194. D(C  12,N   6,Fe  1,I   0)    -95.8082         0.001500   
    195. D(C   9,N   6,Fe  1,S   3)     -7.3901         0.001500   
    196. D(C  12,N   6,Fe  1,S   2)      4.3494         0.001500   
    197. D(C   9,N   6,Fe  1,S   4)   -156.2366         0.001500   
    198. D(S   2,C   8,Fe  1,I   0)    -98.6450         0.001509   
    199. D(S   3,C   8,N   6,C  12)    179.1832         0.048458   
    200. D(S   2,C   8,N   6,C  12)     -1.6135         0.048458   
    201. D(S   2,C   8,N   6,C   9)    177.7683         0.048458   
    202. D(N   6,C   8,S   3,Fe  1)    175.1741         0.005999   
    203. D(S   2,C   8,Fe  1,S   3)    175.2810         0.001509   
    204. D(N   6,C   8,S   2,Fe  1)   -175.1989         0.005054   
    205. D(S   3,C   8,Fe  1,C  15)    -94.2314         0.001509   
    206. D(S   3,C   8,S   2,Fe  1)      4.1116         0.005054   
    207. D(S   3,C   8,Fe  1,S   4)   -149.3996         0.001509   
    208. D(S   3,C   8,Fe  1,S   5)    -41.5645         0.001509   
    209. D(S   2,C   8,S   3,Fe  1)     -4.1256         0.005999   
    210. D(S   3,C   8,Fe  1,S   2)   -175.2810         0.001509   
    211. D(S   3,C   8,Fe  1,I   0)     86.0740         0.001509   
    212. D(S   2,C   8,Fe  1,C  15)     81.0496         0.001509   
    213. D(S   3,C   8,N   6,C   9)     -1.4351         0.048458   
    214. D(S   2,C   8,Fe  1,S   5)    133.7165         0.001509   
    215. D(S   2,C   8,Fe  1,S   4)     25.8814         0.001509   
    216. D(H  23,C   9,N   6,C  12)    140.7691         0.015860   
    217. D(H  23,C   9,N   6,C   8)    -38.6308         0.015860   
    218. D(H  22,C   9,N   6,C  12)     22.7649         0.015860   
    219. D(C  10,C   9,N   6,C   8)     82.2438         0.015860   
    220. D(H  22,C   9,N   6,C   8)   -156.6350         0.015860   
    221. D(C  10,C   9,N   6,C  12)    -98.3563         0.015860   
    222. D(H  24,C  10,C   9,H  23)     64.5042         0.014350   
    223. D(H  24,C  10,C   9,H  22)   -177.4935         0.014350   
    224. D(H  24,C  10,C   9,N   6)    -56.4057         0.014350   
    225. D(C  11,C  10,C   9,H  23)    -55.6107         0.014350   
    226. D(C  11,C  10,C   9,H  22)     62.3917         0.014350   
    227. D(C  11,C  10,C   9,N   6)   -176.5206         0.014350   
    228. D(H  26,C  11,C  10,H  25)    -59.8685         0.012086   
    229. D(H  26,C  11,C  10,H  24)     60.0970         0.012086   
    230. D(H  26,C  11,C  10,C   9)   -179.8150         0.012086   
    231. D(H  27,C  11,C  10,H  25)   -179.9725         0.012086   
    232. D(H  27,C  11,C  10,H  24)    -60.0071         0.012086   
    233. D(H  27,C  11,C  10,C   9)     60.0809         0.012086   
    234. D(H  30,C  12,N   6,C   9)    -54.1268         0.013266   
    235. D(H  30,C  12,N   6,C   8)    125.2622         0.013266   
    236. D(H  29,C  12,N   6,C   9)   -173.1222         0.013266   
    237. D(H  29,C  12,N   6,C   8)      6.2668         0.013266   
    238. D(C  13,C  12,N   6,C   9)     66.3209         0.013266   
    239. D(C  13,C  12,N   6,C   8)   -114.2901         0.013266   
    240. D(H  31,C  13,C  12,H  30)     61.2549         0.009702   
    241. D(H  31,C  13,C  12,H  29)   -179.8223         0.009702   
    242. D(H  31,C  13,C  12,N   6)    -59.2408         0.009702   
    243. D(C  14,C  13,C  12,H  30)   -178.5401         0.009702   
    244. D(C  14,C  13,C  12,H  29)    -59.6173         0.009702   
    245. D(C  14,C  13,C  12,N   6)     60.9641         0.009702   
    246. D(H  34,C  14,C  13,H  32)    -60.4060         0.014987   
    247. D(H  34,C  14,C  13,H  31)   -179.6841         0.014987   
    248. D(H  34,C  14,C  13,C  12)     60.0155         0.014987   
    249. D(H  33,C  14,C  13,H  32)     59.6020         0.014987   
    250. D(H  33,C  14,C  13,H  31)    -59.6761         0.014987   
    251. D(H  33,C  14,C  13,C  12)   -179.9765         0.014987   
    252. D(S   4,C  15,N   7,C  19)     -2.9145         0.050775   
    253. D(S   4,C  15,N   7,C  16)   -178.4043         0.050775   
    254. D(Fe  1,C  15,N   7,C  19)     89.6400         0.050775   
    255. D(Fe  1,C  15,N   7,C  16)    -85.8499         0.050775   
    256. D(N   7,C  15,S   5,Fe  1)   -172.5813         0.005096   
    257. D(S   4,C  15,S   5,Fe  1)      8.7417         0.005096   
    258. D(N   7,C  15,S   4,Fe  1)    172.5272         0.005876   
    259. D(S   5,C  15,S   4,Fe  1)     -8.8130         0.005876   
    260. D(S   5,C  15,Fe  1,C   8)     82.4019         0.001510   
    261. D(S   5,C  15,Fe  1,S   4)    169.8472         0.001510   
    262. D(S   5,C  15,Fe  1,S   3)     23.4562         0.001510   
    263. D(S   5,C  15,Fe  1,S   2)    134.1259         0.001510   
    264. D(S   5,C  15,Fe  1,I   0)    -97.8978         0.001510   
    265. D(S   4,C  15,Fe  1,C   8)    -87.4454         0.001510   
    266. D(S   4,C  15,Fe  1,S   5)   -169.8472         0.001510   
    267. D(S   4,C  15,Fe  1,S   3)   -146.3911         0.001510   
    268. D(S   4,C  15,Fe  1,S   2)    -35.7213         0.001510   
    269. D(S   5,C  15,N   7,C  16)      3.1399         0.050775   
    270. D(S   4,C  15,Fe  1,I   0)     92.2549         0.001510   
    271. D(H  37,C  16,N   7,C  15)   -129.7025         0.012169   
    272. D(H  36,C  16,N   7,C  19)    173.0818         0.012169   
    273. D(H  36,C  16,N   7,C  15)    -11.4180         0.012169   
    274. D(C  17,C  16,N   7,C  19)    -65.8662         0.012169   
    275. D(C  17,C  16,N   7,C  15)    109.6340         0.012169   
    276. D(H  38,C  17,C  16,H  37)     64.4318         0.016152   
    277. D(H  38,C  17,C  16,H  36)    -53.8379         0.016152   
    278. D(H  38,C  17,C  16,N   7)   -174.7973         0.016152   
    279. D(C  18,C  17,C  16,H  37)   -175.1026         0.016152   
    280. D(C  18,C  17,C  16,H  36)     66.6277         0.016152   
    281. D(C  18,C  17,C  16,N   7)    -54.3316         0.016152   
    282. D(H  41,C  18,C  17,H  39)    -60.5990         0.023026   
    283. D(H  41,C  18,C  17,H  38)   -179.2454         0.023026   
    284. D(H  41,C  18,C  17,C  16)     60.2502         0.023026   
    285. D(H  40,C  18,C  17,H  39)    179.3334         0.023026   
    286. D(H  40,C  18,C  17,H  38)     60.6870         0.023026   
    287. D(H  40,C  18,C  17,C  16)    -59.8173         0.023026   
    288. D(H  44,C  19,N   7,C  15)     -7.2173         0.018158   
    289. D(H  43,C  19,N   7,C  16)     49.4770         0.018158   
    290. D(H  43,C  19,N   7,C  15)   -125.9677         0.018158   
    291. D(C  20,C  19,N   7,C  16)    -71.1068         0.018158   
    292. D(C  20,C  19,N   7,C  15)    113.4485         0.018158   
    293. D(C  21,C  20,C  19,H  43)    176.3274         0.012813   
    294. D(C  21,C  20,C  19,N   7)    -62.9336         0.012813   
    295. D(H  45,C  20,C  19,H  44)    -62.8135         0.012813   
    296. D(H  45,C  20,C  19,H  43)     55.6801         0.012813   
    297. D(H  45,C  20,C  19,N   7)    176.4191         0.012813   
    298. D(C  21,C  20,C  19,H  44)     57.8338         0.012813   
    299. D(H  48,C  21,C  20,H  46)    -60.8833         0.017226   
    300. D(H  48,C  21,C  20,H  45)    179.9541         0.017226   
    301. D(H  48,C  21,C  20,C  19)     59.2539         0.017226   
    302. D(H  47,C  21,C  20,H  46)     59.9742         0.017226   
    303. D(H  47,C  21,C  20,H  45)    -59.1883         0.017226   
    304. D(H  47,C  21,C  20,C  19)   -179.8885         0.017226   
    -----------------------------------------------------------------

Number of atoms                         .... 50
Number of degrees of freedom            .... 304


         *************************************************************
         *                GEOMETRY OPTIMIZATION CYCLE   1            *
         *************************************************************
---------------------------------
CARTESIAN COORDINATES (ANGSTROEM)
---------------------------------
  I      3.396300    1.634700    3.047000
  Fe     2.479500    3.455000    1.366800
  S      2.334700    2.527100   -0.725900
  S      0.286200    2.842800    1.194800
  S      4.335300    4.675200    0.936100
  S      2.183100    5.342700    2.617200
  N     -0.147000    1.505700   -1.108000
  N      4.473600    6.793600    2.605000
  C      0.674500    2.185800   -0.334300
  C     -1.510500    1.234500   -0.659100
  C     -2.500200    2.335100   -0.864000
  C     -3.840800    1.936900   -0.272700
  C      0.281800    0.989100   -2.433100
  C     -0.464500    1.652100   -3.619200
  C     -0.224400    3.120200   -3.663500
  C      3.797100    5.772100    2.136100
  C      3.868700    7.637300    3.684400
  C      4.502700    7.504500    5.012900
  C      4.576800    6.158800    5.493100
  C      5.822100    7.044200    2.157800
  C      5.977400    8.315700    1.358100
  C      5.202700    8.275600    0.110300
  H     -1.866900    0.364300   -1.190500
  H     -1.473100    1.018300    0.398600
  H     -2.145300    3.231500   -0.378600
  H     -2.616600    2.519300   -1.921600
  H     -4.555000    2.733700   -0.425500
  H     -3.727200    1.752600    0.785000
  H     -4.198200    1.038600   -0.758100
  H      1.339600    1.173600   -2.547700
  H      0.095000   -0.073100   -2.463500
  H     -1.526800    1.474700   -3.510700
  H     -0.119200    1.211300   -4.543100
  H     -0.758000    3.547100   -4.498900
  H      0.833400    3.304900   -3.777300
  H     -0.571500    3.568200   -2.744800
  H      2.828600    7.365400    3.778100
  H      3.943100    8.671700    3.383000
  H      3.927800    8.084000    5.721500
  H      5.506800    7.899900    4.953000
  H      3.581700    5.749200    5.571300
  H      5.160700    5.565000    4.802800
  H      5.051800    6.149000    6.463000
  H      6.463100    7.110600    3.024400
  H      6.137200    6.215200    1.540400
  H      7.021000    8.457200    1.119300
  H      5.627900    9.147400    1.952900
  H      5.338000    9.194100   -0.433300
  H      4.156100    8.133500    0.336000
  H      5.548800    7.445100   -0.497600

----------------------------
CARTESIAN COORDINATES (A.U.)
----------------------------
  NO LB      ZA    FRAG     MASS         X           Y           Z
   0 I    25.0000*   0   126.900    6.418077    3.089135    5.757996
   1 Fe   26.0000    0    55.850    4.685576    6.529004    2.582878
   2 S    16.0000    0    32.060    4.411944    4.775527   -1.371752
   3 S    16.0000    0    32.060    0.540840    5.372113    2.257845
   4 S    16.0000    0    32.060    8.192530    8.834848    1.768973
   5 S    16.0000    0    32.060    4.125461   10.096240    4.945791
   6 N     7.0000    0    14.007   -0.277790    2.845361   -2.093817
   7 N     7.0000    0    14.007    8.453879   12.838043    4.922737
   8 C     6.0000    0    12.011    1.274620    4.130563   -0.631735
   9 C     6.0000    0    12.011   -2.854431    2.332867   -1.245518
  10 C     6.0000    0    12.011   -4.724693    4.412699   -1.632723
  11 C     6.0000    0    12.011   -7.258060    3.660211   -0.515328
  12 C     6.0000    0    12.011    0.532525    1.869128   -4.597893
  13 C     6.0000    0    12.011   -0.877778    3.122017   -6.839297
  14 C     6.0000    0    12.011   -0.424055    5.896323   -6.923012
  15 C     6.0000    0    12.011    7.175479   10.907688    4.036644
  16 C     6.0000    0    12.011    7.310783   14.432405    6.962507
  17 C     6.0000    0    12.011    8.508870   14.181450    9.473008
  18 C     6.0000    0    12.011    8.648899   11.638445   10.380455
  19 C     6.0000    0    12.011   11.002175   13.311609    4.077651
  20 C     6.0000    0    12.011   11.295649   15.714396    2.566437
  21 C     6.0000    0    12.011    9.831678   15.638618    0.208437
  22 H     1.0000    0     1.008   -3.527930    0.688427   -2.249719
  23 H     1.0000    0     1.008   -2.783756    1.924308    0.753245
  24 H     1.0000    0     1.008   -4.054029    6.106650   -0.715450
  25 H     1.0000    0     1.008   -4.944657    4.760787   -3.631298
  26 H     1.0000    0     1.008   -8.607703    5.165944   -0.804078
  27 H     1.0000    0     1.008   -7.043387    3.311934    1.483435
  28 H     1.0000    0     1.008   -7.933448    1.962670   -1.432601
  29 H     1.0000    0     1.008    2.531477    2.217783   -4.814455
  30 H     1.0000    0     1.008    0.179524   -0.138139   -4.655340
  31 H     1.0000    0     1.008   -2.885234    2.786779   -6.634262
  32 H     1.0000    0     1.008   -0.225255    2.289025   -8.585215
  33 H     1.0000    0     1.008   -1.432412    6.703048   -8.501689
  34 H     1.0000    0     1.008    1.574898    6.245356   -7.138063
  35 H     1.0000    0     1.008   -1.079978    6.742921   -5.186920
  36 H     1.0000    0     1.008    5.345279   13.918589    7.139574
  37 H     1.0000    0     1.008    7.451379   16.387138    6.392944
  38 H     1.0000    0     1.008    7.422466   15.276546   10.812068
  39 H     1.0000    0     1.008   10.406344   14.928647    9.359814
  40 H     1.0000    0     1.008    6.768432   10.864413   10.528231
  41 H     1.0000    0     1.008    9.752310   10.516326    9.075977
  42 H     1.0000    0     1.008    9.546518   11.619926   12.213300
  43 H     1.0000    0     1.008   12.213489   13.437087    5.715288
  44 H     1.0000    0     1.008   11.597627   11.745026    2.910934
  45 H     1.0000    0     1.008   13.267767   15.981792    2.115170
  46 H     1.0000    0     1.008   10.635190   17.286081    3.690446
  47 H     1.0000    0     1.008   10.087358   17.374331   -0.818818
  48 H     1.0000    0     1.008    7.853891   15.370088    0.634948
  49 H     1.0000    0     1.008   10.485712   14.069200   -0.940328
* core charge reduced due to ECP

--------------------------------
INTERNAL COORDINATES (ANGSTROEM)
--------------------------------
 I      0   0   0     0.000000000000     0.00000000     0.00000000
 Fe     1   0   0     2.641417492560     0.00000000     0.00000000
 S      2   1   0     2.293765188506   108.87304132     0.00000000
 S      2   1   3     2.283623815343   101.33367459    79.17635632
 S      2   1   3     2.262384620262   102.00916313   259.81986314
 S      2   1   3     2.283585866570   105.45112949   180.80808681
 N      4   2   1     2.697848492781   110.57159537   258.17695762
 N      5   2   1     2.700365282698   110.33211999   266.41053879
 C      7   4   2     1.317577303235    30.99986039   354.85048489
 C      7   4   2     1.460887709579    88.83056702   173.60523020
 C     10   7   4     1.494259167615   116.05998499    81.50456886
 C     11  10   7     1.518356772962   109.76888595   183.47936652
 C      7   4   2     1.485474674978   152.55138380   353.34034308
 C     13   7   4     1.550279297417   113.25341177   246.62256558
 C     14  13   7     1.488263454500   111.52956169    60.96410180
 C      8   5   2     1.311861924899    30.88890132   352.03596490
 C      8   5   2     1.497610783882   150.07821503   354.82881987
 C     17   8   5     1.478006796331   115.08503599   107.99171847
 C     18  17   8     1.430731050897   114.10493120   305.66839646
 C      8   5   2     1.442650494749    89.57401542   169.52313557
 C     20   8   5     1.510082921564   113.98851694   111.95268416
 C     21  20   8     1.469276332076   111.87241415   297.06644132
 H     10   7   4     1.080118030587   107.83959118   202.62581025
 H     10   7   4     1.080217797483   107.80111995   320.63000439
 H     11  10   7     1.079398040576   109.40497225   303.59425222
 H     11  10   7     1.079813113460   109.35050119    63.54623469
 H     12  11  10     1.080888393869   109.57352941   180.18497747
 H     12  11  10     1.079629908811   109.47466773    60.08092099
 H     12  11  10     1.081799801257   109.55623210   300.08171168
 H     13   7   4     1.079867700230   108.54275004     7.17948979
 H     13   7   4     1.078928746489   108.51375168   126.17488480
 H     14  13   7     1.082462147144   109.00521605   300.75916724
 H     14  13   7     1.080336956695   109.02245687   181.36900673
 H     15  14  13     1.079289456077   109.47880267   180.02349658
 H     15  14  13     1.079817285470   109.26310393    60.01546578
 H     15  14  13     1.079440642185   109.40217267   300.15681612
 H     17   8   5     1.079128032256   108.05546309   346.93972987
 H     17   8   5     1.079981796143   108.09634278   228.65530618
 H     18  17   8     1.080945983849   108.23512805   185.20274682
 H     18  17   8     1.080808021806   108.41066842    66.47583894
 H     19  18  17     1.078939947356   109.48916643   300.18265235
 H     19  18  17     1.081689299198   109.27471557    60.25024282
 H     19  18  17     1.080012523076   109.43434174   179.91355609
 H     20   8   5     1.079946998699   108.46621026   232.53647383
 H     20   8   5     1.080607130274   108.44605312   351.28690421
 H     21  20   8     1.079883627990   109.07612839   176.41907986
 H     21  20   8     1.080584184596   108.86320060    57.01356967
 H     22  21  20     1.075848177021   109.84647094   180.11148505
 H     22  21  20     1.080048360028   109.69761640    59.25392475
 H     22  21  20     1.085844312045   109.16354988   299.90520979

---------------------------
INTERNAL COORDINATES (A.U.)
---------------------------
 I      0   0   0     0.000000000000     0.00000000     0.00000000
 Fe     1   0   0     4.991555666287     0.00000000     0.00000000
 S      2   1   0     4.334588021798   108.87304132     0.00000000
 S      2   1   3     4.315423603898   101.33367459    79.17635632
 S      2   1   3     4.275287341891   102.00916313   259.81986314
 S      2   1   3     4.315351891111   105.45112949   180.80808681
 N      4   2   1     5.098194802168   110.57159537   258.17695762
 N      5   2   1     5.102950845848   110.33211999   266.41053879
 C      7   4   2     2.489860263385    30.99986039   354.85048489
 C      7   4   2     2.760677683516    88.83056702   173.60523020
 C     10   7   4     2.823740599893   116.05998499    81.50456886
 C     11  10   7     2.869278474483   109.76888595   183.47936652
 C      7   4   2     2.807140314583   152.55138380   353.34034308
 C     13   7   4     2.929603303206   113.25341177   246.62256558
 C     14  13   7     2.812410344128   111.52956169    60.96410180
 C      8   5   2     2.479059763578    30.88890132   352.03596490
 C      8   5   2     2.830074236744   150.07821503   354.82881987
 C     17   8   5     2.793028069140   115.08503599   107.99171847
 C     18  17   8     2.703689857492   114.10493120   305.66839646
 C      8   5   2     2.726214342042    89.57401542   169.52313557
 C     20   8   5     2.853643161268   113.98851694   111.95268416
 C     21  20   8     2.776529882677   111.87241415   297.06644132
 H     10   7   4     2.041127270121   107.83959118   202.62581025
 H     10   7   4     2.041315802231   107.80111995   320.63000439
 H     11  10   7     2.039766686180   109.40497225   303.59425222
 H     11  10   7     2.040551060256   109.35050119    63.54623469
 H     12  11  10     2.042583045746   109.57352941   180.18497747
 H     12  11  10     2.040204853644   109.47466773    60.08092099
 H     12  11  10     2.044305356106   109.55623210   300.08171168
 H     13   7   4     2.040654214302   108.54275004     7.17948979
 H     13   7   4     2.038879848879   108.51375168   126.17488480
 H     14  13   7     2.045557008439   109.00521605   300.75916724
 H     14  13   7     2.041540980507   109.02245687   181.36900673
 H     15  14  13     2.039561491215   109.47880267   180.02349658
 H     15  14  13     2.040558944213   109.26310393    60.01546578
 H     15  14  13     2.039847191553   109.40217267   300.15681612
 H     17   8   5     2.039256444401   108.05546309   346.93972987
 H     17   8   5     2.040869824330   108.09634278   228.65530618
 H     18  17   8     2.042691875037   108.23512805   185.20274682
 H     18  17   8     2.042431164558   108.41066842    66.47583894
 H     19  18  17     2.038901015450   109.48916643   300.18265235
 H     19  18  17     2.044096537478   109.27471557    60.25024282
 H     19  18  17     2.040927889818   109.43434174   179.91355609
 H     20   8   5     2.040804066692   108.46621026   232.53647383
 H     20   8   5     2.042051534581   108.44605312   351.28690421
 H     21  20   8     2.040684313406   109.07612839   176.41907986
 H     21  20   8     2.042008173534   108.86320060    57.01356967
 H     22  21  20     2.033058416249   109.84647094   180.11148505
 H     22  21  20     2.040995611844   109.69761640    59.25392475
 H     22  21  20     2.051948373841   109.16354988   299.90520979

---------------------
BASIS SET INFORMATION
---------------------
There are 6 groups of distinct atoms

 Group   1 Type I   : 11s10p8d2f contracted to 6s5p3d2f pattern {521111/34111/611/11}
 Group   2 Type Fe  : 17s11p7d1f contracted to 6s4p4d1f pattern {842111/6311/4111/1}
 Group   3 Type S   : 14s9p3d1f contracted to 5s5p2d1f pattern {73211/51111/21/1}
 Group   4 Type N   : 11s6p2d1f contracted to 5s3p2d1f pattern {62111/411/11/1}
 Group   5 Type C   : 11s6p2d1f contracted to 5s3p2d1f pattern {62111/411/11/1}
 Group   6 Type H   : 5s1p contracted to 3s1p pattern {311/1}

Atom   0I    basis set group =>   1
Atom   1Fe   basis set group =>   2
Atom   2S    basis set group =>   3
Atom   3S    basis set group =>   3
Atom   4S    basis set group =>   3
Atom   5S    basis set group =>   3
Atom   6N    basis set group =>   4
Atom   7N    basis set group =>   4
Atom   8C    basis set group =>   5
Atom   9C    basis set group =>   5
Atom  10C    basis set group =>   5
Atom  11C    basis set group =>   5
Atom  12C    basis set group =>   5
Atom  13C    basis set group =>   5
Atom  14C    basis set group =>   5
Atom  15C    basis set group =>   5
Atom  16C    basis set group =>   5
Atom  17C    basis set group =>   5
Atom  18C    basis set group =>   5
Atom  19C    basis set group =>   5
Atom  20C    basis set group =>   5
Atom  21C    basis set group =>   5
Atom  22H    basis set group =>   6
Atom  23H    basis set group =>   6
Atom  24H    basis set group =>   6
Atom  25H    basis set group =>   6
Atom  26H    basis set group =>   6
Atom  27H    basis set group =>   6
Atom  28H    basis set group =>   6
Atom  29H    basis set group =>   6
Atom  30H    basis set group =>   6
Atom  31H    basis set group =>   6
Atom  32H    basis set group =>   6
Atom  33H    basis set group =>   6
Atom  34H    basis set group =>   6
Atom  35H    basis set group =>   6
Atom  36H    basis set group =>   6
Atom  37H    basis set group =>   6
Atom  38H    basis set group =>   6
Atom  39H    basis set group =>   6
Atom  40H    basis set group =>   6
Atom  41H    basis set group =>   6
Atom  42H    basis set group =>   6
Atom  43H    basis set group =>   6
Atom  44H    basis set group =>   6
Atom  45H    basis set group =>   6
Atom  46H    basis set group =>   6
Atom  47H    basis set group =>   6
Atom  48H    basis set group =>   6
Atom  49H    basis set group =>   6
---------------------------------
AUXILIARY/J BASIS SET INFORMATION
---------------------------------
There are 6 groups of distinct atoms

 Group   1 Type I   : 11s5p5d3f1g contracted to 8s4p3d2f1g pattern {41111111/2111/311/21/1}
 Group   2 Type Fe  : 19s5p5d3f3g contracted to 8s5p5d2f3g pattern {121111111/11111/11111/21/111}
 Group   3 Type S   : 14s5p5d2f1g contracted to 8s4p3d1f1g pattern {71111111/2111/311/2/1}
 Group   4 Type N   : 12s5p4d2f1g contracted to 6s4p3d1f1g pattern {711111/2111/211/2/1}
 Group   5 Type C   : 12s5p4d2f1g contracted to 6s4p3d1f1g pattern {711111/2111/211/2/1}
 Group   6 Type H   : 5s2p1d contracted to 3s1p1d pattern {311/2/1}

Atom   0I    basis set group =>   1
Atom   1Fe   basis set group =>   2
Atom   2S    basis set group =>   3
Atom   3S    basis set group =>   3
Atom   4S    basis set group =>   3
Atom   5S    basis set group =>   3
Atom   6N    basis set group =>   4
Atom   7N    basis set group =>   4
Atom   8C    basis set group =>   5
Atom   9C    basis set group =>   5
Atom  10C    basis set group =>   5
Atom  11C    basis set group =>   5
Atom  12C    basis set group =>   5
Atom  13C    basis set group =>   5
Atom  14C    basis set group =>   5
Atom  15C    basis set group =>   5
Atom  16C    basis set group =>   5
Atom  17C    basis set group =>   5
Atom  18C    basis set group =>   5
Atom  19C    basis set group =>   5
Atom  20C    basis set group =>   5
Atom  21C    basis set group =>   5
Atom  22H    basis set group =>   6
Atom  23H    basis set group =>   6
Atom  24H    basis set group =>   6
Atom  25H    basis set group =>   6
Atom  26H    basis set group =>   6
Atom  27H    basis set group =>   6
Atom  28H    basis set group =>   6
Atom  29H    basis set group =>   6
Atom  30H    basis set group =>   6
Atom  31H    basis set group =>   6
Atom  32H    basis set group =>   6
Atom  33H    basis set group =>   6
Atom  34H    basis set group =>   6
Atom  35H    basis set group =>   6
Atom  36H    basis set group =>   6
Atom  37H    basis set group =>   6
Atom  38H    basis set group =>   6
Atom  39H    basis set group =>   6
Atom  40H    basis set group =>   6
Atom  41H    basis set group =>   6
Atom  42H    basis set group =>   6
Atom  43H    basis set group =>   6
Atom  44H    basis set group =>   6
Atom  45H    basis set group =>   6
Atom  46H    basis set group =>   6
Atom  47H    basis set group =>   6
Atom  48H    basis set group =>   6
Atom  49H    basis set group =>   6
-------------------------
ECP PARAMETER INFORMATION
-------------------------

 Group 1, Type I  ECP Def2-ECP (replacing 28 core electrons, lmax=3)

Atom   0I    ECP group =>   1



           ************************************************************
           *        Program running with 16 parallel MPI-processes    *
           *              working on a common directory               *
           ************************************************************
------------------------------------------------------------------------------
                             ORCA STARTUP CALCULATIONS
                           -- RI-GTO INTEGRALS CHOSEN --
------------------------------------------------------------------------------
------------------------------------------------------------------------------
                   ___                                                        
                  /   \      - P O W E R E D   B Y -                         
                 /     \                                                     
                 |  |  |   _    _      __       _____    __    __             
                 |  |  |  | |  | |    /  \     |  _  \  |  |  /  |          
                  \  \/   | |  | |   /    \    | | | |  |  | /  /          
                 / \  \   | |__| |  /  /\  \   | |_| |  |  |/  /          
                |  |  |   |  __  | /  /__\  \  |    /   |      \           
                |  |  |   | |  | | |   __   |  |    \   |  |\   \          
                \     /   | |  | | |  |  |  |  | |\  \  |  | \   \       
                 \___/    |_|  |_| |__|  |__|  |_| \__\ |__|  \__/        
                                                                              
                      - O R C A' S   B I G   F R I E N D -                    
                                      &                                       
                       - I N T E G R A L  F E E D E R -                       
                                                                              
 v1 FN, 2020, v2 2021, v3 2022-2024                                           
------------------------------------------------------------------------------


----------------------
SHARK INTEGRAL PACKAGE
----------------------

Number of atoms                             ...     50
Number of basis functions                   ...    907
Number of shells                            ...    371
Maximum angular momentum                    ...      3
Integral batch strategy                     ... SHARK/LIBINT Hybrid
RI-J (if used) integral strategy            ... SPLIT-RIJ (Revised 2003 algorithm where possible)
Printlevel                                  ...      1
Contraction scheme used                     ... SEGMENTED contraction
Prescreening option                         ... SCHWARTZ
   Thresh                                   ... 2.500e-11
   Tcut                                     ... 2.500e-12
   Tpresel                                  ... 2.500e-12 
Coulomb Range Separation                    ... NOT USED
Exchange Range Separation                   ... NOT USED
Multipole approximations                    ... NOT USED
Finite Nucleus Model                        ... NOT USED
CABS basis                                  ... NOT available
Auxiliary Coulomb fitting basis             ... AVAILABLE
   # of basis functions in Aux-J            ...   1443
   # of shells in Aux-J                     ...    489
   Maximum angular momentum in Aux-J        ...      4
Auxiliary J/K fitting basis                 ... NOT available
Auxiliary Correlation fitting basis         ... NOT available
Auxiliary 'external' fitting basis          ... NOT available

Checking pre-screening integrals            ... done (  0.0 sec) Dimension = 371
Check shell pair data                       ... done (  0.0 sec)
Shell pair information
Shell pair cut-off parameter TPreSel        ...   2.5e-12
Total number of shell pairs                 ...     69006
Shell pairs after pre-screening             ...     38747
Total number of primitive shell pairs       ...    220790
Primitive shell pairs kept                  ...     80664
          la=0 lb=0:  10389 shell pairs
          la=1 lb=0:  11703 shell pairs
          la=1 lb=1:   3330 shell pairs
          la=2 lb=0:   5248 shell pairs
          la=2 lb=1:   2967 shell pairs
          la=2 lb=2:    696 shell pairs
          la=3 lb=0:   2339 shell pairs
          la=3 lb=1:   1331 shell pairs
          la=3 lb=2:    603 shell pairs
          la=3 lb=3:    141 shell pairs

Calculating one electron integrals          ... done (  0.0 sec)
Calculating ECP integrals                   ... done (  0.5 sec)
done (  0.1 sec)
Calculating Nuclear repulsion               ... done (  0.0 sec) ENN=   3526.178864479536 Eh

Diagonalization of the overlap matrix:
Smallest eigenvalue                        ... 1.109e-04
Time for diagonalization                   ...    0.114 sec
Threshold for overlap eigenvalues          ... 1.000e-07
Number of eigenvalues below threshold      ... 0
Time for construction of square roots      ...    0.073 sec
Total time needed                          ...    0.203 sec

-------------------
DFT GRID GENERATION
-------------------

General Integration Accuracy     IntAcc      ... 4.959
Radial Grid Type                 RadialGrid  ... OptM3 with GC (2021)
Angular Grid (max. ang.)         AngularGrid ... 6 (Lebedev-590)
Angular grid pruning method      GridPruning ... 4 (adaptive)
Weight generation scheme         WeightScheme... mBecke (2022)
Basis function cutoff            BFCut       ... 1.0000e-11
Integration weight cutoff        WCut        ... 1.0000e-14
Partially contracted basis set               ... off
Rotationally invariant grid construction     ... off
Angular grids for H and He will be reduced by one unit
Core-polarized basis detected: some atoms will have their core
                               angular grid increased.

Total number of grid points                  ...   577906
Total number of batches                      ...     9052
Average number of points per batch           ...       63
Average number of grid points per atom       ...    11558

--------------------
COSX GRID GENERATION
--------------------

GRIDX 1
-------
General Integration Accuracy     IntAcc      ... 4.020
Radial Grid Type                 RadialGrid  ... OptM3 with GC (2021)
Angular Grid (max. ang.)         AngularGrid ... 2 (Lebedev-110)
Angular grid pruning method      GridPruning ... 4 (adaptive)
Weight generation scheme         WeightScheme... mBecke (2022)
Basis function cutoff            BFCut       ... 1.0000e-11
Integration weight cutoff        WCut        ... 1.0000e-14
Partially contracted basis set               ... on
Rotationally invariant grid construction     ... off
Angular grids for H and He will be reduced by one unit
Core-polarized basis detected: some atoms will have their core
                               angular grid increased.

Total number of grid points                  ...    67227
Total number of batches                      ...      550
Average number of points per batch           ...      122
Average number of grid points per atom       ...     1345
UseSFitting                                  ... on

GRIDX 2
-------
General Integration Accuracy     IntAcc      ... 4.338
Radial Grid Type                 RadialGrid  ... OptM3 with GC (2021)
Angular Grid (max. ang.)         AngularGrid ... 3 (Lebedev-194)
Angular grid pruning method      GridPruning ... 4 (adaptive)
Weight generation scheme         WeightScheme... mBecke (2022)
Basis function cutoff            BFCut       ... 1.0000e-11
Integration weight cutoff        WCut        ... 1.0000e-14
Partially contracted basis set               ... on
Rotationally invariant grid construction     ... off
Angular grids for H and He will be reduced by one unit
Core-polarized basis detected: some atoms will have their core
                               angular grid increased.

Total number of grid points                  ...   135009
Total number of batches                      ...     1078
Average number of points per batch           ...      125
Average number of grid points per atom       ...     2700
UseSFitting                                  ... on

GRIDX 3
-------
General Integration Accuracy     IntAcc      ... 4.871
Radial Grid Type                 RadialGrid  ... OptM3 with GC (2021)
Angular Grid (max. ang.)         AngularGrid ... 4 (Lebedev-302)
Angular grid pruning method      GridPruning ... 4 (adaptive)
Weight generation scheme         WeightScheme... mBecke (2022)
Basis function cutoff            BFCut       ... 1.0000e-11
Integration weight cutoff        WCut        ... 1.0000e-14
Partially contracted basis set               ... on
Rotationally invariant grid construction     ... off
Angular grids for H and He will be reduced by one unit
Core-polarized basis detected: some atoms will have their core
                               angular grid increased.

Total number of grid points                  ...   258046
Total number of batches                      ...     2038
Average number of points per batch           ...      126
Average number of grid points per atom       ...     5161
UseSFitting                                  ... on
Initializing property integral containers    ... done (  0.0 sec)

SHARK setup successfully completed in  10.2 seconds

Maximum memory used throughout the entire STARTUP-calculation: 176.1 MB


           ************************************************************
           *        Program running with 16 parallel MPI-processes    *
           *              working on a common directory               *
           ************************************************************
-------------------------------------------------------------------------------
                                 ORCA GUESS
                   Start orbitals & Density for SCF / CASSCF
-------------------------------------------------------------------------------

------------
SCF SETTINGS
------------
Hamiltonian:
 Density Functional     Method          .... DFT(GTOs)
 Exchange Functional    Exchange        .... PBE
   PBE kappa parameter   XKappa         ....  0.804000
   PBE mue parameter    XMuePBE         ....  0.219520
 Correlation Functional Correlation     .... PBE
   PBE beta parameter  CBetaPBE         ....  0.066725
 LDA part of GGA corr.  LDAOpt          .... PW91-LDA
 Gradients option       PostSCFGGA      .... off
 Hybrid DFT is turned on
   Fraction HF Exchange ScalHFX         ....  0.250000
   Scaling of DF-GGA-X  ScalDFX         ....  0.750000
   Scaling of DF-GGA-C  ScalDFC         ....  1.000000
   Scaling of DF-LDA-C  ScalLDAC        ....  1.000000
   Perturbative correction              ....  0.000000
   NL short-range parameter             ....  6.900000
 RI-approximation to the Coulomb term is turned on
   Number of AuxJ basis functions       .... 1443
   RIJ-COSX (HFX calculated with COS-X)).... on


General Settings:
 Integral files         IntName         .... GEDTUE-S4
 Hartree-Fock type      HFTyp           .... UHF
 Total Charge           Charge          ....    0
 Multiplicity           Mult            ....    6
 Number of Electrons    NEL             ....  241
 Basis Dimension        Dim             ....  907
 Nuclear Repulsion      ENuc            ....   3526.1788644795 Eh

Convergence Acceleration:
 AO-DIIS                CNVDIIS         .... on
   Start iteration      DIISMaxIt       ....    12
   Startup error        DIISStart       ....  0.200000
   # of expansion vecs  DIISMaxEq       ....     5
   Bias factor          DIISBfac        ....   1.050
   Max. coefficient     DIISMaxC        ....  10.000
 MO-DIIS                CNVKDIIS        .... off
 Trust-Rad. Augm. Hess. CNVTRAH         .... auto
   Auto Start mean grad. ratio tolernc. ....  1.125000
   Auto Start start iteration           ....    50
   Auto Start num. interpolation iter.  ....    10
   Max. Number of Micro iterations      ....    24
   Max. Number of Macro iterations      .... Maxiter - #DIIS iter
   Number of Davidson start vectors     ....     2
   Converg. threshold    (grad. norm)   ....   1.000e-05
   Grad. Scal. Fac. for Micro threshold ....   0.100
   Minimum threshold for Micro iter.    ....   1.000e-02
   NR start threshold (gradient norm)   ....   1.000e-04
   Initial trust radius                 ....   0.400
   Minimum AH scaling param. (alpha)    ....   1.000
   Maximum AH scaling param. (alpha)    .... 1000.000
   Quad. conv. algorithm                .... NR
   White noise on init. David. guess    .... on
   Maximum white noise                  ....   0.010
   Pseudo random numbers                .... off
   Inactive MOs                         .... canonical
   Orbital update algorithm             .... Taylor
   Preconditioner                       .... Diag
   Full preconditioner red. dimension   ....   250
 SOSCF                  CNVSOSCF        .... on
   Start iteration      SOSCFMaxIt      ....   150
   Startup grad/error   SOSCFStart      ....  0.003300
   Hessian update       SOSCFHessUp     .... L-BFGS
 Level Shifting         CNVShift        .... on
   Level shift para.    LevelShift      ....    0.2500
   Turn off err/grad.   ShiftErr        ....    0.0010
 Zerner damping         CNVZerner       .... off
 Static damping         CNVDamp         .... on
   Fraction old density DampFac         ....    0.7000
   Max. Damping (<1)    DampMax         ....    0.9800
   Min. Damping (>=0)   DampMin         ....    0.0000
   Turn off err/grad.   DampErr         ....    0.1000

SCF Procedure:
 Maximum # iterations   MaxIter         ....   125
 SCF integral mode      SCFMode         .... Direct
   Integral package                     .... SHARK and LIBINT hybrid scheme
 Reset frequency        DirectResetFreq ....    20
 Integral Threshold     Thresh          ....  2.500e-11 Eh
 Primitive CutOff       TCut            ....  2.500e-12 Eh

Convergence Tolerance:
 Convergence Check Mode ConvCheckMode   .... Total+1el-Energy
 Convergence forced     ConvForced      .... 0
 Energy Change          TolE            ....  1.000e-08 Eh
 1-El. energy change                    ....  1.000e-05 Eh
 Orbital Gradient       TolG            ....  1.000e-05
 Orbital Rotation angle TolX            ....  1.000e-05
 DIIS Error             TolErr          ....  5.000e-07

------------------------------
INITIAL GUESS: MODEL POTENTIAL
------------------------------
Loading Hartree-Fock densities                     ... done
Atomic calculation to generate a density for atom 0 (I  with ECP)
  Multiplicity assumed   :    2
  Atomic configuration   : 1s2 2s2 2p6 3s2 3p6 4s2 3d10 4p6 5s2 4d10 5p5 
  Number of open shells  : 1
  Command: /opt/apps/pkg/applications/orca/orca_6_0_1_linux_x86-64_shared_openmpi416/orca GEDTUE-S4_atom53.inp "" > GEDTUE-S4_atom53.out
Returned from the atomic calculation with res=0
Calculating cut-offs                               ... done
Initializing the effective Hamiltonian             ... done
Setting up the integral package (SHARK)            ... done
done (   0.2 sec)
Making the grid                                    ... done (   0.4 sec)
Mapping shells                                     ... done
Starting the XC term evaluation                    ... done (   0.1 sec)
  promolecular density results
     # of electrons  =    268.988079741
     EX              =   -420.166358827
     EC              =    -10.760127299
     EX+EC           =   -430.926486127
Transforming the Hamiltonian                       ... done (   0.1 sec)
done (   0.1 sec)
Back transforming the eigenvectors                 ... done (   0.1 sec)
done
                      ------------------
                      INITIAL GUESS DONE (   3.5 sec)
                      ------------------
             **** ENERGY FILE WAS UPDATED (GEDTUE-S4.en.tmp) ****
Finished Guess after   3.9 sec
Maximum memory used throughout the entire GUESS-calculation: 81.3 MB


           ************************************************************
           *        Program running with 16 parallel MPI-processes    *
           *              working on a common directory               *
           ************************************************************

-------------------------------------------------------------------------------------------
                                      ORCA LEAN-SCF
                              memory conserving SCF solver
-------------------------------------------------------------------------------------------

----------------------------------------D-I-I-S--------------------------------------------
Iteration    Energy (Eh)           Delta-E    RMSDP     MaxDP     DIISErr   Damp  Time(sec)
-------------------------------------------------------------------------------------------
               ***  Starting incremental Fock matrix formation  ***
    1    -3811.9118316851768213     0.00e+00  3.77e-03  8.97e-01  2.79e-01  0.700  13.9
Warning: op=0 Small HOMO/LUMO gap (  -0.373) - skipping pre-diagonalization
         LevelShift set to 0.473 Eh
         Will do a full diagonalization
    2    -3812.1764209969901458    -2.65e-01  8.24e-04  1.83e-01  1.91e-01  0.700   9.0
                               ***Turning on AO-DIIS***
    3    -3812.4048320804490686    -2.28e-01  7.01e-04  1.71e-01  1.30e-01  0.700   7.7
    4    -3812.5156688511056018    -1.11e-01  5.71e-04  1.39e-01  9.01e-02  0.700   7.5
    5    -3812.6061046345698742    -9.04e-02  1.51e-03  3.59e-01  6.27e-02  0.000   7.3
    6    -3812.8658891891905114    -2.60e-01  1.95e-04  1.91e-02  2.93e-02  0.000   7.7
    7    -3812.8849397685594340    -1.91e-02  1.40e-04  1.25e-02  2.24e-02  0.000   7.2
    8    -3812.8935569186864996    -8.62e-03  1.15e-04  1.75e-02  1.24e-02  0.000   7.0
    9    -3812.8992895784799657    -5.73e-03  9.31e-05  1.53e-02  9.52e-03  0.000   7.1
   10    -3812.9035757321348683    -4.29e-03  6.31e-05  7.77e-03  9.88e-03  0.000   6.9
   11    -3812.9065224952560129    -2.95e-03  4.80e-05  5.03e-03  8.64e-03  0.000   6.8
   12    -3812.9088360111077236    -2.31e-03  4.49e-05  6.40e-03  7.06e-03  0.000   6.5
   13    -3812.9105950573052723    -1.76e-03  3.79e-05  4.36e-03  7.44e-03  0.000   6.5
   14    -3812.9121843027337491    -1.59e-03  3.39e-05  4.31e-03  6.70e-03  0.000   6.5
   15    -3812.9134422935071598    -1.26e-03  2.74e-05  4.03e-03  6.16e-03  0.000   6.3
   16    -3812.9144538354516953    -1.01e-03  2.49e-05  3.42e-03  4.74e-03  0.000   6.2
   17    -3812.9151358874355537    -6.82e-04  2.35e-05  3.54e-03  4.60e-03  0.000   6.3
   18    -3812.9157079699211863    -5.72e-04  1.93e-05  3.17e-03  4.21e-03  0.000   6.2
   19    -3812.9161555885925736    -4.48e-04  1.64e-05  2.77e-03  3.46e-03  0.000   5.9
                              *** Initializing SOSCF ***
---------------------------------------S-O-S-C-F--------------------------------------
Iteration    Energy (Eh)           Delta-E    RMSDP     MaxDP     MaxGrad    Time(sec)
--------------------------------------------------------------------------------------
   20    -3812.9164691281816886    -3.14e-04  1.33e-05  2.33e-03  2.72e-03     6.6
               *** Restarting incremental Fock matrix formation ***
   21    -3812.9166729121302524    -2.04e-04  3.67e-05  6.67e-03  4.99e-03    13.9
   22    -3812.9169108314131336    -2.38e-04  7.76e-05  1.29e-02  3.83e-03     9.6
   23    -3812.9162477929362467     6.63e-04  5.83e-05  9.55e-03  8.54e-03    10.4
   24    -3812.9170661593520890    -8.18e-04  7.34e-06  7.68e-04  3.80e-04    10.2
   25    -3812.9170624513521943     3.71e-06  4.88e-06  4.95e-04  4.45e-04     8.7
   26    -3812.9170753526773296    -1.29e-05  1.86e-06  1.46e-04  7.27e-05     8.0
   27    -3812.9170752230961625     1.30e-07  1.03e-06  8.73e-05  7.19e-05     7.3
   28    -3812.9170758147251945    -5.92e-07  4.66e-07  4.06e-05  1.89e-05     6.9
   29    -3812.9170757795559439     3.52e-08  2.73e-07  2.12e-05  2.44e-05     6.1
   30    -3812.9170758497434690    -7.02e-08  1.65e-07  1.38e-05  3.93e-06     5.6
   31    -3812.9170758053619465     4.44e-08  1.20e-07  1.01e-05  3.38e-06     5.2
   32    -3812.9170758132263472    -7.86e-09  1.09e-07  1.26e-05  7.68e-07     4.8
                 **** Energy Check signals convergence ****

               *****************************************************
               *                     SUCCESS                       *
               *           SCF CONVERGED AFTER  32 CYCLES          *
               *****************************************************

 done (   24.641 sec)
Old exchange energy                            :    -67.964218709 Eh
New exchange energy                            :    -67.964213156 Eh
Exchange energy change after final integration :      0.000005553 Eh
Total energy after final integration           :  -3812.917070260 Eh
             **** ENERGY FILE WAS UPDATED (GEDTUE-S4.en.tmp) ****

----------------
TOTAL SCF ENERGY
----------------

Total Energy       :      -3812.91707026045424 Eh         -103754.74827 eV

Components:
Nuclear Repulsion  :       3526.17886447953560 Eh           95952.20502 eV
Electronic Energy  :      -7339.09594029276195 Eh         -199706.95344 eV
One Electron Energy:     -12386.43111332764965 Eh         -337051.92598 eV
Two Electron Energy:       5047.33517303488770 Eh          137344.97254 eV

Virial components:
Potential Energy   :      -7435.68822566144991 Eh         -202335.36315 eV
Kinetic Energy     :       3622.77115540099521 Eh           98580.61488 eV
Virial Ratio       :          2.05248631688369

DFT components:
N(Alpha)           :      122.999996821717 electrons
N(Beta)            :      117.999996873132 electrons
N(Total)           :      240.999993694850 electrons
E(X)               :     -203.057422651980 Eh       
E(C)               :       -9.002227717558 Eh       
E(XC)              :     -212.059650369538 Eh       

---------------
SCF CONVERGENCE
---------------

  Last Energy change         ...    7.8644e-09  Tolerance :   1.0000e-08
  Last MAX-Density change    ...    1.2616e-05  Tolerance :   1.0000e-07
  Last RMS-Density change    ...    1.0906e-07  Tolerance :   5.0000e-09
  Last DIIS Error            ...    2.7193e-03  Tolerance :   5.0000e-07
  Last Orbital Gradient      ...    7.6804e-07  Tolerance :   1.0000e-05
  Last Orbital Rotation      ...    7.1794e-06  Tolerance :   1.0000e-05


----------------------
UHF SPIN CONTAMINATION
----------------------

Warning: in a DFT calculation there is little theoretical justification to 
         calculate <S**2> as in Hartree-Fock theory. We will do it anyways
         but you should keep in mind that the values have only limited relevance

Expectation value of <S**2>     :     8.769752
Ideal value S*(S+1) for S=2.5   :     8.750000
Deviation                       :     0.019752

----------------
ORBITAL ENERGIES
----------------
                 SPIN UP ORBITALS
  NO   OCC          E(Eh)            E(eV) 
   0   1.0000    -256.437745     -6978.0258 
   1   1.0000     -89.003864     -2421.9183 
   2   1.0000     -89.003625     -2421.9118 
   3   1.0000     -89.003180     -2421.8997 
   4   1.0000     -89.002017     -2421.8680 
   5   1.0000     -30.255361      -823.2902 
   6   1.0000     -26.075021      -709.5374 
   7   1.0000     -26.073523      -709.4966 
   8   1.0000     -26.072412      -709.4664 
[...]
117:   1497.05   0.001625    8.21  0.000339  (-0.007320 -0.016498 -0.003591)
118:   1498.40   0.004184   21.14  0.000871  ( 0.019529 -0.010755  0.019345)
119:   1501.35   0.007438   37.59  0.001546  (-0.028332  0.011213 -0.024851)
120:   1530.00   0.141930  717.25  0.028948  ( 0.092410  0.120205  0.077200)
121:   1534.37   0.022627  114.35  0.004602  ( 0.037399 -0.033280  0.045778)
122:   3042.65   0.001576    7.96  0.000162  (-0.011212  0.003590 -0.004794)
123:   3044.60   0.008588   43.40  0.000880  (-0.012241 -0.025733 -0.008262)
124:   3045.31   0.005623   28.42  0.000576  (-0.022581 -0.007989  0.001568)
125:   3047.02   0.000111    0.56  0.000011  ( 0.000517  0.003270 -0.000628)
126:   3050.31   0.002159   10.91  0.000221  (-0.004518 -0.011069 -0.008826)
127:   3053.73   0.009901   50.03  0.001012  (-0.016079 -0.018476 -0.020294)
128:   3054.42   0.004957   25.05  0.000506  (-0.006681 -0.020712 -0.005729)
129:   3054.80   0.002920   14.76  0.000298  ( 0.006526 -0.003165  0.015675)
130:   3055.98   0.002390   12.08  0.000244  ( 0.001420 -0.010770  0.011227)
131:   3064.61   0.002443   12.35  0.000249  (-0.003479  0.008998 -0.012479)
132:   3066.77   0.005862   29.62  0.000596  ( 0.011215  0.019612 -0.009276)
133:   3071.51   0.010211   51.60  0.001037  (-0.011690 -0.028511 -0.009380)
134:   3078.73   0.001936    9.79  0.000196  (-0.004711 -0.012352 -0.004638)
135:   3079.14   0.002914   14.72  0.000295  ( 0.007363 -0.007712 -0.013476)
136:   3081.80   0.006335   32.02  0.000642  (-0.023949  0.008243 -0.000202)
137:   3092.06   0.000591    2.99  0.000060  ( 0.001609  0.003819  0.006515)
138:   3107.29   0.000121    0.61  0.000012  (-0.003448 -0.000527 -0.000164)
139:   3125.03   0.005374   27.16  0.000537  (-0.006081 -0.005734 -0.021606)
140:   3126.27   0.004331   21.89  0.000432  ( 0.003794  0.010883  0.017307)
141:   3126.92   0.006682   33.77  0.000667  (-0.018718 -0.012782  0.012375)
142:   3128.76   0.005909   29.86  0.000589  ( 0.001472 -0.014862 -0.019139)
143:   3129.01   0.005615   28.38  0.000560  ( 0.004113 -0.008592  0.021663)
144:   3130.33   0.003156   15.95  0.000315  (-0.000514 -0.004558  0.017135)
145:   3130.67   0.002698   13.64  0.000269  ( 0.006452 -0.013774  0.006133)
146:   3131.61   0.001048    5.29  0.000104  (-0.003280 -0.007313 -0.006337)
147:   3131.85   0.006547   33.09  0.000652  (-0.024812  0.004903 -0.003560)
148:   3134.86   0.004350   21.98  0.000433  ( 0.016744 -0.012353  0.000175)
149:   3135.77   0.004132   20.88  0.000411  ( 0.012728  0.014979  0.004985)

* The epsilon (eps) is given for a Dirac delta lineshape.
** The dipole moment derivative (T) already includes vibrational overlap.

The first frequency considered to be a vibration is 6
The total number of vibrations considered is 144


--------------------------
THERMOCHEMISTRY AT 298.15K
--------------------------

Temperature         ...   298.15 K
Pressure            ...     1.00 atm
Total Mass          ...   535.38 AMU
Quasi RRHO          ...     True
Cut-Off Frequency   ...     1.00 cm^-1

Throughout the following assumptions are being made:
  (1) The electronic state is orbitally nondegenerate
      but the spin degeneracy is treated
  (2) There are no thermally accessible electronically excited states
  (3) Hindered rotations indicated by low frequency modes are not
      treated as such but are treated as vibrations and this may
      cause some error
  (4) All equations used are the standard statistical mechanics
      equations for an ideal gas
  (5) All vibrations are strictly harmonic

freq.      11.41  E(vib)   ...       0.58 
freq.      19.77  E(vib)   ...       0.56 
freq.      21.33  E(vib)   ...       0.56 
freq.      23.85  E(vib)   ...       0.56 
freq.      26.48  E(vib)   ...       0.56 
freq.      41.54  E(vib)   ...       0.54 
freq.      46.48  E(vib)   ...       0.53 
freq.      50.33  E(vib)   ...       0.52 
freq.      60.12  E(vib)   ...       0.51 
freq.      66.10  E(vib)   ...       0.50 
freq.      73.28  E(vib)   ...       0.49 
freq.      74.23  E(vib)   ...       0.49 
freq.      82.50  E(vib)   ...       0.48 
freq.      93.55  E(vib)   ...       0.47 
freq.     105.82  E(vib)   ...       0.45 
freq.     109.51  E(vib)   ...       0.45 
freq.     124.39  E(vib)   ...       0.43 
freq.     138.96  E(vib)   ...       0.42 
freq.     149.84  E(vib)   ...       0.40 
freq.     159.43  E(vib)   ...       0.39 
freq.     181.43  E(vib)   ...       0.37 
freq.     198.26  E(vib)   ...       0.35 
freq.     206.45  E(vib)   ...       0.35 
freq.     209.08  E(vib)   ...       0.34 
freq.     232.45  E(vib)   ...       0.32 
freq.     242.20  E(vib)   ...       0.31 
freq.     247.18  E(vib)   ...       0.31 
freq.     251.06  E(vib)   ...       0.30 
freq.     259.89  E(vib)   ...       0.30 
freq.     274.27  E(vib)   ...       0.28 
freq.     301.70  E(vib)   ...       0.26 
freq.     307.05  E(vib)   ...       0.26 
freq.     315.86  E(vib)   ...       0.25 
freq.     355.68  E(vib)   ...       0.22 
freq.     358.11  E(vib)   ...       0.22 
freq.     374.47  E(vib)   ...       0.21 
freq.     375.48  E(vib)   ...       0.21 
freq.     410.09  E(vib)   ...       0.19 
freq.     412.71  E(vib)   ...       0.19 
freq.     427.23  E(vib)   ...       0.18 
freq.     451.23  E(vib)   ...       0.16 
freq.     463.36  E(vib)   ...       0.16 
freq.     506.03  E(vib)   ...       0.14 
freq.     510.65  E(vib)   ...       0.14 
freq.     586.74  E(vib)   ...       0.11 
freq.     608.14  E(vib)   ...       0.10 
freq.     611.37  E(vib)   ...       0.10 
freq.     656.05  E(vib)   ...       0.08 
freq.     740.65  E(vib)   ...       0.06 
freq.     753.18  E(vib)   ...       0.06 
freq.     776.38  E(vib)   ...       0.05 
freq.     787.62  E(vib)   ...       0.05 
freq.     859.53  E(vib)   ...       0.04 
freq.     860.87  E(vib)   ...       0.04 
freq.     866.03  E(vib)   ...       0.04 
freq.     881.70  E(vib)   ...       0.04 
freq.     891.28  E(vib)   ...       0.04 
freq.     891.82  E(vib)   ...       0.03 
freq.     899.60  E(vib)   ...       0.03 
freq.     912.81  E(vib)   ...       0.03 
freq.     953.11  E(vib)   ...       0.03 
freq.     962.51  E(vib)   ...       0.03 
freq.     997.81  E(vib)   ...       0.02 
freq.    1015.05  E(vib)   ...       0.02 
freq.    1055.88  E(vib)   ...       0.02 
freq.    1061.43  E(vib)   ...       0.02 
freq.    1072.98  E(vib)   ...       0.02 
freq.    1075.15  E(vib)   ...       0.02 
freq.    1110.31  E(vib)   ...       0.02 
freq.    1112.39  E(vib)   ...       0.01 
freq.    1114.08  E(vib)   ...       0.01 
freq.    1119.64  E(vib)   ...       0.01 
freq.    1122.26  E(vib)   ...       0.01 
freq.    1133.44  E(vib)   ...       0.01 
freq.    1161.95  E(vib)   ...       0.01 
freq.    1171.88  E(vib)   ...       0.01 
freq.    1227.32  E(vib)   ...       0.01 
freq.    1233.49  E(vib)   ...       0.01 
freq.    1274.31  E(vib)   ...       0.01 
freq.    1276.95  E(vib)   ...       0.01 
freq.    1297.55  E(vib)   ...       0.01 
freq.    1300.34  E(vib)   ...       0.01 
freq.    1301.61  E(vib)   ...       0.01 
freq.    1306.94  E(vib)   ...       0.01 
freq.    1312.55  E(vib)   ...       0.01 
freq.    1326.94  E(vib)   ...       0.01 
freq.    1343.31  E(vib)   ...       0.01 
freq.    1373.56  E(vib)   ...       0.01 
freq.    1374.96  E(vib)   ...       0.01 
freq.    1375.55  E(vib)   ...       0.01 
freq.    1383.18  E(vib)   ...       0.00 
freq.    1389.96  E(vib)   ...       0.00 
freq.    1397.83  E(vib)   ...       0.00 
freq.    1403.74  E(vib)   ...       0.00 
freq.    1408.28  E(vib)   ...       0.00 
freq.    1415.74  E(vib)   ...       0.00 
freq.    1416.66  E(vib)   ...       0.00 
freq.    1418.16  E(vib)   ...       0.00 
freq.    1460.29  E(vib)   ...       0.00 
freq.    1465.04  E(vib)   ...       0.00 
freq.    1472.22  E(vib)   ...       0.00 
freq.    1473.06  E(vib)   ...       0.00 
freq.    1479.91  E(vib)   ...       0.00 
freq.    1483.38  E(vib)   ...       0.00 
freq.    1483.87  E(vib)   ...       0.00 
freq.    1484.53  E(vib)   ...       0.00 
freq.    1489.61  E(vib)   ...       0.00 
freq.    1490.11  E(vib)   ...       0.00 
freq.    1491.89  E(vib)   ...       0.00 
freq.    1492.19  E(vib)   ...       0.00 
freq.    1496.10  E(vib)   ...       0.00 
freq.    1497.05  E(vib)   ...       0.00 
freq.    1498.40  E(vib)   ...       0.00 
freq.    1501.35  E(vib)   ...       0.00 
freq.    1530.00  E(vib)   ...       0.00 
freq.    1534.37  E(vib)   ...       0.00 
freq.    3042.65  E(vib)   ...       0.00 
freq.    3044.60  E(vib)   ...       0.00 
freq.    3045.31  E(vib)   ...       0.00 
freq.    3047.02  E(vib)   ...       0.00 
freq.    3050.31  E(vib)   ...       0.00 
freq.    3053.73  E(vib)   ...       0.00 
freq.    3054.42  E(vib)   ...       0.00 
freq.    3054.80  E(vib)   ...       0.00 
freq.    3055.98  E(vib)   ...       0.00 
freq.    3064.61  E(vib)   ...       0.00 
freq.    3066.77  E(vib)   ...       0.00 
freq.    3071.51  E(vib)   ...       0.00 
freq.    3078.73  E(vib)   ...       0.00 
freq.    3079.14  E(vib)   ...       0.00 
freq.    3081.80  E(vib)   ...       0.00 
freq.    3092.06  E(vib)   ...       0.00 
freq.    3107.29  E(vib)   ...       0.00 
freq.    3125.03  E(vib)   ...       0.00 
freq.    3126.27  E(vib)   ...       0.00 
freq.    3126.92  E(vib)   ...       0.00 
freq.    3128.76  E(vib)   ...       0.00 
freq.    3129.01  E(vib)   ...       0.00 
freq.    3130.33  E(vib)   ...       0.00 
freq.    3130.67  E(vib)   ...       0.00 
freq.    3131.61  E(vib)   ...       0.00 
freq.    3131.85  E(vib)   ...       0.00 
freq.    3134.86  E(vib)   ...       0.00 
freq.    3135.77  E(vib)   ...       0.00 

------------
INNER ENERGY
------------

The inner energy is: U= E(el) + E(ZPE) + E(vib) + E(rot) + E(trans)
    E(el)   - is the total energy from the electronic structure calculation
              = E(kin-el) + E(nuc-el) + E(el-el) + E(nuc-nuc)
    E(ZPE)  - the the zero temperature vibrational energy from the frequency calculation
    E(vib)  - the the finite temperature correction to E(ZPE) due to population
              of excited vibrational states
    E(rot)  - is the rotational thermal energy
    E(trans)- is the translational thermal energy

Summary of contributions to the inner energy U:
Electronic energy                ...  -3812.95802949 Eh
Zero point energy                ...      0.41480552 Eh     260.29 kcal/mol
Thermal vibrational correction   ...      0.02756993 Eh      17.30 kcal/mol
Thermal rotational correction    ...      0.00141627 Eh       0.89 kcal/mol
Thermal translational correction ...      0.00141627 Eh       0.89 kcal/mol
-----------------------------------------------------------------------
Total thermal energy                  -3812.51282150 Eh


Summary of corrections to the electronic energy:
(perhaps to be used in another calculation)
Total thermal correction                  0.03040248 Eh      19.08 kcal/mol
Non-thermal (ZPE) correction              0.41480552 Eh     260.29 kcal/mol
-----------------------------------------------------------------------
Total correction                          0.44520800 Eh     279.37 kcal/mol


--------
ENTHALPY
--------

The enthalpy is H = U + kB*T
                kB is Boltzmann's constant
Total thermal energy              ...  -3812.51282150 Eh 
Thermal Enthalpy correction       ...      0.00094421 Eh       0.59 kcal/mol
-----------------------------------------------------------------------
Total Enthalpy                    ...  -3812.51187729 Eh


Note: Only C1 symmetry has been detected, increase convergence thresholds 
      if your molecule has a higher symmetry. Symmetry factor of 1.0 is   
      used for the rotational entropy correction. 
 

Note: Rotational entropy computed according to Herzberg 
Infrared and Raman Spectra, Chapter V,1, Van Nostrand Reinhold, 1945 
Point Group:  C1, Symmetry Number:   1  
Rotational constants in cm-1:     0.005491     0.003021     0.002427 

Vibrational entropy computed according to the QRRHO of S. Grimme
Chem.Eur.J. 2012 18 9955 using a reference frequency of 100.0 cm-1


-------
ENTROPY
-------

The entropy contributions are T*S = T*(S(el)+S(vib)+S(rot)+S(trans))
     S(el)   - electronic entropy
     S(vib)  - vibrational entropy
     S(rot)  - rotational entropy
     S(trans)- translational entropy
The entropies will be listed as multiplied by the temperature to get
units of energy

Electronic entropy                ...      0.00169175 Eh      1.06 kcal/mol
Vibrational entropy               ...      0.05195203 Eh     32.60 kcal/mol
Rotational entropy                ...      0.01754950 Eh     11.01 kcal/mol
Translational entropy             ...      0.02124748 Eh     13.33 kcal/mol
-----------------------------------------------------------------------
Final entropy term                ...      0.09244076 Eh     58.01 kcal/mol

In case the symmetry of your molecule has not been determined correctly
or in case you have a reason to use a different symmetry number we print 
out the resulting rotational entropy values for sn=1,12:

 non-linear molecules -----------------------------------
|  sn= 1 | S(rot)=       0.01754950 Eh     11.01 kcal/mol|
|  sn= 2 | S(rot)=       0.01689505 Eh     10.60 kcal/mol|
|  sn= 3 | S(rot)=       0.01651222 Eh     10.36 kcal/mol|
|  sn= 4 | S(rot)=       0.01624059 Eh     10.19 kcal/mol|
|  sn= 5 | S(rot)=       0.01602990 Eh     10.06 kcal/mol|
|  sn= 6 | S(rot)=       0.01585776 Eh      9.95 kcal/mol|
|  sn= 7 | S(rot)=       0.01571221 Eh      9.86 kcal/mol|
|  sn= 8 | S(rot)=       0.01558614 Eh      9.78 kcal/mol|
|  sn= 9 | S(rot)=       0.01547493 Eh      9.71 kcal/mol|
|  sn=10 | S(rot)=       0.01537545 Eh      9.65 kcal/mol|
|  sn=11 | S(rot)=       0.01528546 Eh      9.59 kcal/mol|
|  sn=12 | S(rot)=       0.01520330 Eh      9.54 kcal/mol|
 linear molecules ---------------------------------------
|  Dinfh | S(rot)=       0.01101081 Eh      6.91 kcal/mol|
|  Cinfv | S(rot)=       0.01166527 Eh      7.32 kcal/mol|
 --------------------------------------------------------


-------------------
GIBBS FREE ENERGY
-------------------

The Gibbs free energy is G = H - T*S

Total enthalpy                    ...  -3812.51187729 Eh 
Total entropy correction          ...     -0.09244076 Eh    -58.01 kcal/mol
-----------------------------------------------------------------------
Final Gibbs free energy         ...  -3812.60431805 Eh

For completeness - the Gibbs free energy minus the electronic energy
G-E(el)                           ...      0.35371145 Eh    221.96 kcal/mol


Maximum memory used throughout the entire PROP-calculation: 1247.4 MB

--------------------------------
SUGGESTED CITATIONS FOR THIS RUN
--------------------------------

Below you find a list of papers that are relevant to this ORCA run
We neither can nor want to force you to cite these papers, but we appreciate if you do
You receive ORCA, which is the product of decades of hard work by many enthusiastic individuals, for free
The only thing we kindly ask in return is that you cite our papers,
We deeply appreciate it, if you show your appreciation for ORCA by not just citing the generic ORCA reference.

Please note that relegating all ORCA citations to the supporting information does *not* help us.
SI sections are not indexed - citations you put there will not count into any citation statistics
But we need these citations in order to attract the funding resources that allow us to do what we are doing

Therefore, if you are a happy ORCA user, please consider citing a few of the papers listed below in the main body of your paper

In addition to the list printed below, the program has created the file GEDTUE-S4.bibtex that contains the list in bibtex format
You can import this file easily into all common literature databanks and citation aid programs


List of essential papers. We consider these as the minimum necessary citations

  1. Neese,F.
     Software update: the ORCA program system, version 5.0
     WIRES Comput. Molec. Sci., 2022 12(1)e1606
     doi.org/10.1002/wcms.1606

List of papers to cite with high priority. The work reported in these papers was absolutely
necessary for this run to complete.
Our perspective: the developers of density functionals and basis sets usually get cited in chemistry papers
Good! But without the algorithms to do something with them, the functionals or basis sets would not do anything.
Hence, in our opinion, the algorithm design and method developments papers are equally worthy of getting cited

  1. Neese,F.
     An improvement of the resolution of the identity approximation for the formation of the Coulomb matrix
     J. Comp. Chem., 2003 24(14)1740-1747
     doi.org/10.1002/jcc.10318
  2. Neese,F.; Wennmohs,F.; Hansen,A.; Becker,U.
     Efficient, approximate and parallel Hartree-Fock and hybrid DFT calculations. A 'chain-of-spheres' algorithm for the Hartree-Fock exchange
     Chem. Phys., 2009 356(1-3)98-109
     doi.org/10.1016/j.chemphys.2008.10.036
  3. Bykov,D.; Petrenko,T.; Izsak,R.; Kossmann,S.; Becker,U.; Valeev,E.; Neese,F.
     Efficient implementation of the analytic second derivatives of Hartree-Fock and hybrid DFT energies: a detailed analysis of different approximations
     Molec. Phys., 2015 113 1961-1977
     doi.org/10.1080/00268976.2015.1025114
  4. Helmich-Paris,B.; de Souza,B.; Neese,F.; Izsák,R.
     An improved chain of spheres for exchange algorithm
     J. Chem. Phys., 2021 155 104109
     doi.org/doi: 10.1063/5.0058766.
  5. Neese,F.
     The SHARK Integral Generation and Digestion System
     J. Comp. Chem., 2022  1-16
     doi.org/10.1002/jcc.26942

List of suggested additional citations. These are papers that are important in the 'surrounding' of 
of this run, or papers that preceded the highly important papers. If you like your results we are grateful for a citation.

  1. Izsak,R.; Neese,F.
     An overlap fitted chain of spheres exchange method
     J. Chem. Phys., 2011 135 144105
     doi.org/10.1063/1.3646921
  2. Izsak,R.; Hansen,A.; Neese,F.
     The resolution of identity and chain of spheres approximations for the LPNO-CCSD singles Fock term
     Molec. Phys., 2012 110 2413-2417
     doi.org/10.1080/00268976.2012.687466
  3. Neese,F.
     The ORCA program system
     WIRES Comput. Molec. Sci., 2012 2(1)73-78
     doi.org/10.1002/wcms.81
  4. Izsak,R.; Neese,F.; Klopper,W.
     Robust fitting techniques in the chain of spheres approximation to the Fock exchange: The role of the complementary space
     J. Chem. Phys., 2013 139 
     doi.org/10.1063/1.4819264
  5. Neese,F.
     Software update: the ORCA program system, version 4.0
     WIRES Comput. Molec. Sci., 2018 8(1)1-6
     doi.org/10.1002/wcms.1327
  6. Neese,F.; Wennmohs,F.; Becker,U.; Riplinger,C.
     The ORCA quantum chemistry program package
     J. Chem. Phys., 2020 152 Art. No. L224108
     doi.org/10.1063/5.0004608

List of optional additional citations

  1. Neese,F.
     Approximate second-order SCF convergence for spin unrestricted wavefunctions
     Chem. Phys. Lett., 2000 325(1-3)93-98
     doi.org/10.1016/s0009-2614(00)00662-x

Timings for individual modules:

Sum of individual times          ...    11892.984 sec (= 198.216 min)
Startup calculation              ...      375.283 sec (=   6.255 min)   3.2 %
SCF iterations                   ...     4077.651 sec (=  67.961 min)  34.3 %
Property integrals               ...     2744.501 sec (=  45.742 min)  23.1 %
SCF Response                     ...     2665.651 sec (=  44.428 min)  22.4 %
Property calculations            ...      835.778 sec (=  13.930 min)   7.0 %
SCF Gradient evaluation          ...     1193.076 sec (=  19.885 min)  10.0 %
Geometry relaxation              ...        1.045 sec (=   0.017 min)   0.0 %
                             ****ORCA TERMINATED NORMALLY****
TOTAL RUN TIME: 0 days 3 hours 19 minutes 18 seconds 617 msec
