
                                 *****************
                                 * O   R   C   A *
                                 *****************

                                            #,                                       
                                            ###                                      
                                            ####                                     
                                            #####                                    
                                            ######                                   
                                           ########,                                 
                                     ,,################,,,,,                         
                               ,,#################################,,                 
                          ,,##########################################,,             
                       ,#########################################, ''#####,          
                    ,#############################################,,   '####,        
                  ,##################################################,,,,####,       
                ,###########''''           ''''###############################       
              ,#####''   ,,,,##########,,,,          '''####'''          '####       
            ,##' ,,,,###########################,,,                        '##       
           ' ,,###''''                  '''############,,,                           
         ,,##''                                '''############,,,,        ,,,,,,###''
      ,#''                                            '''#######################'''  
     '                                                          ''''####''''         
             ,#######,   #######,   ,#######,      ##                                
            ,#'     '#,  ##    ##  ,#'     '#,    #''#        ,####,   ,####,        
            ##       ##  ##   ,#'  ##            #'  '#       #'       #'  '#        
            ##       ##  #######   ##           ,######,      #####,   #    #        
            '#,     ,#'  ##    ##  '#,     ,#' ,#      #,     #,   #   #,  ,#        
             '#######'   ##     ##  '#######'  #'      '#     '####' # '####'        



                #########################################################
                #                        -***-                          #
                #          Department of theory and spectroscopy        #
                #                                                       #
                #                      Frank Neese                      #
                #                                                       #
                #     Directorship, Architecture, Infrastructure        #
                #                    SHARK, DRIVERS                     #
                #        Core code/Algorithms in most modules           #
                #                                                       #
                #        Max Planck Institute fuer Kohlenforschung      #
                #                Kaiser Wilhelm Platz 1                 #
                #                 D-45470 Muelheim/Ruhr                 #
                #                      Germany                          #
                #                                                       #
                #                  All rights reserved                  #
                #                        -***-                          #
                #########################################################


                         Program Version 6.0.1  -  RELEASE   -


 With contributions from (in alphabetic order):
[Max-Planck-Institut fuer Kohlenforschung]                               
  Daniel Aravena         : Magnetic Suceptibility                        
  Michael Atanasov       : Ab Initio Ligand Field Theory (pilot matlab implementation)
  Alexander A. Auer      : GIAO ZORA, VPT2 properties, NMR spectrum      
  Ute Becker             : All parallelization in ORCA, NUMFREQ, NUMCALC 
  Giovanni Bistoni       : ED, misc. LED, open-shell LED, HFLD           
  Martin Brehm           : Molecular dynamics                            
  Dmytro Bykov           : pre 5.0 version of the SCF Hessian            
  Marcos Casanova-Páez   : Triplet and SCS-CIS(D). UHF-(DLPNO)-IP/EA/STEOM-CCSD. UHF-CVS-IP/STEOM-CCSD   
  Vijay G. Chilkuri      : MRCI spin determinant printing, contributions to CSF-ICE 
  Pauline Colinet        : FMM embedding                                 
  Dipayan Datta          : RHF DLPNO-CCSD density                        
  Achintya Kumar Dutta   : EOM-CC, STEOM-CC                              
  Nicolas Foglia         : Exact transition moments, OPA infrastructure, MCD improvements    
  Dmitry Ganyushin       : Spin-Orbit,Spin-Spin,Magnetic field MRCI      
  Miquel Garcia-Rates    : C-PCM and meta-GGA Hessian, CCSD/C-PCM, Gaussian charge scheme 
  Tiago L. C. Gouveia    : GS-ROHF, GS-ROCIS                             
  Yang Guo               : DLPNO-NEVPT2, F12-NEVPT2, CIM, IAO-localization        
  Andreas Hansen         : Spin unrestricted coupled pair/coupled cluster methods 
  Ingolf Harden          : AUTO-CI MPn and infrastructure                
  Benjamin Helmich-Paris : MC-RPA, TRAH-(SCF,CASSCF), AVAS, COSX integrals, SCF dyn. polar. 
  Lee Huntington         : MR-EOM, pCC                                   
  Robert Izsak           : Overlap fitted RIJCOSX, COSX-SCS-MP3, EOM     
  Riya Kayal             : Wick's Theorem for AUTO-CI, AUTO-CI UHF-CCSDT 
  Emily Kempfer          : AUTO-CI, RHF CISDT and CCSDT                  
  Christian Kollmar      : KDIIS, OOCD, Brueckner-CCSD(T), CCSD density, CASPT2, CASPT2-K, improved NEVPT2 
  Axel Koslowski         : Symmetry handling                             
  Simone Kossmann        : meta-GGA functionals, TD-DFT gradient, OOMP2, (MP2 Hessian; deprecated post 5.0) 
  Lucas Lang             : DCDCAS                                        
  Marvin Lechner         : AUTO-CI (C++ implementation), FIC-MRCC        
  Spencer Leger          : CASSCF response                               
  Dagmar Lenk            : GEPOL surface, SMD, ORCA-2-JSON               
  Dimitrios Liakos       : Extrapolation schemes; Compound Job, initial MDCI parallelization 
  Dimitrios Manganas     : Further ROCIS development; embedding schemes. LFT, Crystal Embedding 
  Dimitrios Pantazis     : SARC Basis sets                               
  Anastasios Papadopoulos: AUTO-CI, single reference methods and gradients 
  Taras Petrenko         : pre 6.0 DFT Hessian and TD-DFT gradient, (ASA, deprecated), ECA, 1-Electron XAS/XES, NRVS 
  Peter Pinski           : DLPNO-MP2, DLPNO-MP2 Gradient                 
  Christoph Reimann      : Effective Core Potentials                     
  Marius Retegan         : Local ZFS, SOC                                
  Christoph Riplinger    : Optimizer, TS searches, QM/MM, DLPNO-CCSD(T), (RO)-DLPNO pert. Triples 
  Michael Roemelt        : Original ROCIS implementation                 
  Masaaki Saitow         : Open-shell DLPNO-CCSD energy and density      
  Barbara Sandhoefer     : DKH picture change effects                    
  Kantharuban Sivalingam : CASSCF convergence/infrastructure, NEVPT2 and variants, FIC-MRCI 
  Bernardo de Souza      : ESD, SOC TD-DFT                               
  Georgi L. Stoychev     : AutoAux, RI-MP2 NMR, DLPNO-MP2 response, X2C  
  Van Anh Tran           : RI-MP2 g-tensors                              
  Willem Van den Heuvel  : Paramagnetic NMR                              
  Zikuan Wang            : NOTCH, Electric field optimization            
  Frank Wennmohs         : Technical directorship and infrastructure     
  Hang Xu                : AUTO-CI-Response properties                   
                                                                         
[FACCTs GmbH]                                                            
  Markus Bursch, Miquel Garcia-Rates, Christoph Riplinger, Bernardo de Souza, Georgi L. Stoychev 
                                                                 
  APM, Basis sets (HGBS, AHGBS, def-TZVP (Ac-Lr), def2-XVPD (La-Lu)), CI-OPT, improved COSX, DLPNO-Multilevel,           
  DOCKER, DRACO, updates on ESD, GOAT, IRC, LR-CPCM, MBIS, meta-GGA TD-DFT gradient, ML-optimized integration grids, 
  MM, NACMEs, nearIR, NEB, NEB-TS, NL-DFT gradient (VV10), 2- and 3-layer-ONIOM, interface openCOSMO-RS, QMMM,   
  Crystal-QMMM, SF, symmetry and pop. for TD-DFT, r2SCAN hybrids, SOLVATOR                                   
                                                                         
[Other institutions]                                                     
  V. Asgeirsson          : NEB                                           
  Christoph Bannwarth    : sTDA-DFT, sTD-DFT, PBEh-3c, B97-3c, D3        
  Sebastian Ehlert       : rSCAN, r2SCAN, r2SCAN-3c, D4, dhf basis sets  
  Marvin Friede          : D4 for Fr, Ra, Ac-Lr                          
  Lars Goerigk           : TD-DFT with DH, B97 family of functionals     
  Stefan Grimme          : VdW corrections, initial TS optimization, DFT functionals, gCP, sTDA/sTD-DF 
  Waldemar Hujo          : DFT-NL                                        
  H. Jonsson             : NEB                                           
  Holger Kruse           : gCP                                           
  Marcel Mueller         : wB97X-3c, vDZP basis set                      
  Hagen Neugebauer       : wr2SCAN                                       
  Tobias Risthaus        : range-separated hybrid DFT                    
  Lukas Wittmann         : regularized MP2, r2SCAN double-hybrids, wr2SCAN        
                                                                         
We gratefully acknowledge several colleagues who have allowed us to      
interface, adapt or use parts of their codes:                            
  Ed Valeev, F. Pavosevic, A. Kumar             : LibInt (2-el integral package), F12 methods 
  Garnet Chan, S. Sharma, J. Yang, R. Olivares  : DMRG                   
  Ulf Ekstrom                                   : XCFun DFT Library      
  Mihaly Kallay                                 : mrcc  (arbitrary order and MRCC methods)
  Frank Weinhold                                : gennbo (NPA and NBO analysis)           
  Simon Mueller                                 : openCOSMO-RS                            
  Christopher J. Cramer and Donald G. Truhlar   : smd solvation model                     
  S Lehtola, MJT Oliveira, MAL Marques          : LibXC Library                           
  Liviu Ungur et al                             : ANISO software                          


 Your calculation uses the libint2 library for the computation of 2-el integrals
 For citations please refer to: http://libint.valeyev.net

 Your ORCA version has been built with support for libXC version: 6.2.2
 For citations please refer to: https://libxc.gitlab.io

 This ORCA versions uses:
   CBLAS   interface :  Fast vector & matrix operations
   LAPACKE interface :  Fast linear algebra routines
   SCALAPACK package :  Parallel linear algebra routines
   Shared memory     :  Shared parallel matrices
   BLAS/LAPACK       :  OpenBLAS 0.3.27  USE64BITINT DYNAMIC_ARCH NO_AFFINITY Cooperlake SINGLE_THREADED
        Core in use  :  Cooperlake
   Copyright (c) 2011-2014, The OpenBLAS Project


NOTE: MaxCore=3600 MB was set to SCF,MP2,MDCI,CIPSI,MRCI and CIS
      => If you want to overwrite this, your respective input block should be placed after the MaxCore statement
Warning: RI is on but no J-basis has been assigned. Assigning Def2/J (nothing to worry about!)
================================================================================

----- Orbital basis set information -----
Your calculation utilizes the basis: def2-TZVP
   F. Weigend and R. Ahlrichs, Phys. Chem. Chem. Phys. 7, 3297 (2005).

----- AuxJ basis set information -----
Your calculation utilizes the auxiliary basis: def2/J
   F. Weigend, Phys. Chem. Chem. Phys. 8, 1057 (2006).

================================================================================
                                        WARNINGS
                       Please study these warnings very carefully!
================================================================================


WARNING: your system is open-shell and RHF/RKS was chosen
  ===> : WILL SWITCH to UHF/UKS


WARNING: Geometry Optimization
  ===> : Switching off AutoStart
         For restart on a previous wavefunction, please use MOREAD

================================================================================
                                       INPUT FILE
================================================================================
NAME = KIKBOV-S6.inp
|  1> ! PBE0 def2-TZVP  Opt Freq DEFGRID3
|  2> 
|  3> %maxcore 3600
|  4> 
|  5> %pal
|  6>     nprocs 16
|  7> end
|  8> 
|  9> *xyz 0 6
| 10> Fe 6.9001 10.9224 0.9369
| 11> Cl 7.0182 13.0992 1.1939
| 12> Cl 4.8811 10.2671 1.3134
| 13> Cl 8.2104 9.9167 2.3688
| 14> O 7.3397 10.4823 -0.7431
| 15> P 8.071 10.3516 -2.1017
| 16> C 7.1113 9.275 -3.1129
| 17> C 6.7064 7.9815 -2.6008
| 18> C 6.0119 7.0488 -3.2936
| 19> C 5.6974 7.3583 -4.6392
| 20> C 6.045 8.5726 -5.2518
| 21> C 6.74 9.4605 -4.4384
| 22> O 7.1539 7.7697 -1.3185
| 23> O 5.0353 6.39 -5.3522
| 24> O 7.1753 10.66 -5.0188
| 25> C 6.5108 6.7327 -0.5422
| 26> C 4.7575 6.5825 -6.7881
| 27> C 6.4155 11.2784 -6.1053
| 28> C 9.6875 9.6644 -1.7673
| 29> C 10.2372 8.5629 -2.42
| 30> C 11.5029 8.0097 -2.1489
| 31> C 12.2214 8.6596 -1.1648
| 32> C 11.8185 9.7976 -0.472
| 33> C 10.514 10.2802 -0.8134
| 34> C 4.8549 13.1469 -1.9179
| 35> O 9.4901 7.9812 -3.4172
| 36> O 13.4379 8.0976 -0.8636
| 37> O 9.9821 11.3998 -0.2591
| 38> C 9.8552 6.6702 -3.9363
| 39> C 14.258 8.7234 0.1707
| 40> C 10.6686 11.972 0.8937
| 41> C 8.2026 11.9856 -2.8418
| 42> C 9.3186 12.4642 -3.4844
| 43> C 9.4688 13.7759 -4.0267
| 44> C 8.3243 14.5733 -3.8961
| 45> C 7.1429 14.1524 -3.3037
| 46> C 7.0989 12.8402 -2.7916
| 47> O 10.3776 11.5973 -3.6019
| 48> O 8.3303 15.8791 -4.3681
| 49> O 5.9458 12.3001 -2.3096
| 50> C 11.7029 12.1004 -3.9263
| 51> C 9.5488 16.3768 -4.9204
| 52> H 5.6963 6.7056 -7.3261
| 53> H 4.2286 5.7128 -7.1753
| 54> H 4.1426 7.4711 -6.923
| 55> H 5.4094 11.5098 -5.7587
| 56> H 6.9116 12.1958 -6.4188
| 57> H 6.3601 10.5898 -6.9472
| 58> H 6.6293 5.7751 -1.0471
| 59> H 6.968 6.6818 0.4448
| 60> H 5.4508 6.9605 -0.44
| 61> H 9.8275 5.9396 -3.1292
| 62> H 9.151 6.3787 -4.7141
| 63> H 10.8602 6.7121 -4.3537
| 64> H 13.7127 8.7275 1.1133
| 65> H 15.1836 8.1619 0.2892
| 66> H 14.4892 9.7472 -0.1194
| 67> H 11.6846 12.245 0.6125
| 68> H 10.1344 12.8592 1.2307
| 69> H 10.6991 11.2391 1.6986
| 70> H 12.0235 12.8011 -3.1568
| 71> H 12.4047 11.2692 -3.9755
| 72> H 11.6729 12.6076 -4.8894
| 73> H 9.839 15.7627 -5.7716
| 74> H 9.4058 17.4057 -5.247
| 75> H 10.3314 16.3415 -4.1638
| 76> H 4.5273 13.7358 -2.7734
| 77> H 4.0288 12.5333 -1.5619
| 78> H 5.1811 13.8141 -1.1215
| 79> H 6.2795 14.8128 -3.2366
| 80> H 10.3869 14.1242 -4.4977
| 81> H 5.7897 8.8017 -6.2853
| 82> H 5.7098 6.1067 -2.8386
| 83> H 12.447 10.2837 0.2727
| 84> H 11.886 7.1364 -2.6747
| 85> *
| 86> 
| 87>                          ****END OF INPUT****
================================================================================

                       *****************************
                       * Geometry Optimization Run *
                       *****************************

Geometry optimization settings:
Update method            Update   .... BFGS
Choice of coordinates    CoordSys .... (2022) Redundant Internals
Initial Hessian          InHess   .... Almloef's Model
Max. no of cycles        MaxIter  .... 225

Convergence Tolerances:
Energy Change            TolE     ....  5.0000e-06 Eh
Max. Gradient            TolMAXG  ....  3.0000e-04 Eh/bohr
RMS Gradient             TolRMSG  ....  1.0000e-04 Eh/bohr
Max. Displacement        TolMAXD  ....  4.0000e-03 bohr
RMS Displacement         TolRMSD  ....  2.0000e-03 bohr
Strict Convergence                .... False

------------------------------------------------------------------------------
                        ORCA OPTIMIZATION COORDINATE SETUP
------------------------------------------------------------------------------

The optimization will be done in redundant internal coordinates (2022)
Making redundant internal coordinates   ...  (2022 redundants) done
Evaluating the initial hessian          ...  (Almloef) done
Evaluating the coordinates              ...  done
Calculating the B-matrix                .... done
Calculating the G-matrix                .... done
Diagonalizing the G-matrix              .... done
Small eigenvalue found = 2.423e-03
Small eigenvalue found = 3.540e-03
Small eigenvalue found = 4.246e-03
Small eigenvalue found = 5.545e-03
Small eigenvalue found = 6.246e-03
Small eigenvalue found = 7.467e-03
Small eigenvalue found = 7.957e-03
Small eigenvalue found = 8.546e-03
Small eigenvalue found = 9.334e-03
Small eigenvalue found = 1.033e-02
Small eigenvalue found = 1.254e-02
Small eigenvalue found = 1.547e-02
Small eigenvalue found = 1.673e-02
Small eigenvalue found = 1.788e-02
Small eigenvalue found = 2.144e-02
Small eigenvalue found = 2.404e-02
Small eigenvalue found = 2.733e-02
The first mode is                       ....  129
The number of degrees of freedom        ....  219

    -----------------------------------------------------------------
                    Redundant Internal Coordinates


    -----------------------------------------------------------------
         Definition                    Initial Value    Approx d2E/dq
    -----------------------------------------------------------------
      1. B(Cl  1,Fe  0)                  2.1951         0.736846   
      2. B(Cl  2,Fe  0)                  2.1558         0.851242   
      3. B(Cl  3,Fe  0)                  2.1860         0.761851   
      4. B(O   4,Fe  0)                  1.7915         1.295667   
      5. B(P   5,O   4)                  1.5484         1.050953   
      6. B(C   6,P   5)                  1.7614         0.536597   
      7. B(C   7,C   6)                  1.4489         0.503217   
      8. B(C   8,C   7)                  1.3536         0.714189   
      9. B(C   9,C   8)                  1.4161         0.567672   
     10. B(C  10,C   9)                  1.4038         0.593931   
     11. B(C  11,C  10)                  1.3903         0.624045   
     12. B(C  11,C   6)                  1.3890         0.627176   
     13. B(O  12,C   7)                  1.3746         0.592260   
     14. B(O  13,C   9)                  1.3727         0.596280   
     15. B(O  14,C  11)                  1.4018         0.535782   
     16. B(C  15,O  12)                  1.4462         0.455156   
     17. B(C  16,O  13)                  1.4751         0.409298   
     18. B(C  17,O  14)                  1.4629         0.428058   
     19. B(C  18,P   5)                  1.7881         0.486588   
     20. B(C  19,C  18)                  1.3934         0.617101   
     21. B(C  20,C  19)                  1.4077         0.585537   
     22. B(C  21,C  20)                  1.3810         0.645882   
     23. B(C  22,C  21)                  1.3919         0.620484   
     24. B(C  23,C  22)                  1.4322         0.535084   
     25. B(C  23,C  18)                  1.4044         0.592683   
     26. B(O  25,C  19)                  1.3751         0.591049   
     27. B(O  26,C  21)                  1.3735         0.594617   
     28. B(O  27,C  23)                  1.3578         0.629824   
     29. B(C  28,O  25)                  1.4565         0.438257   
     30. B(C  29,O  26)                  1.4608         0.431422   
     31. B(C  30,O  27)                  1.4586         0.434869   
     32. B(C  31,P   5)                  1.7986         0.468070   
     33. B(C  32,C  31)                  1.3738         0.663000   
     34. B(C  33,C  32)                  1.4273         0.544775   
     35. B(C  34,C  33)                  1.4010         0.600066   
     36. B(C  35,C  34)                  1.3870         0.631694   
     37. B(C  36,C  35)                  1.4093         0.582089   
     38. B(C  36,C  31)                  1.3968         0.609410   
     39. B(O  37,C  32)                  1.3736         0.594327   
     40. B(O  38,C  34)                  1.3885         0.562688   
     41. B(O  39,C  36)                  1.3615         0.621372   
     42. B(O  39,C  24)                  1.4355         0.473519   
     43. B(C  40,O  37)                  1.4542         0.441989   
     44. B(C  41,O  38)                  1.4274         0.487752   
     45. B(H  42,C  16)                  1.0890         0.361412   
     46. B(H  43,C  16)                  1.0891         0.361355   
     47. B(H  44,C  16)                  1.0890         0.361432   
     48. B(H  45,C  17)                  1.0890         0.361429   
     49. B(H  46,C  17)                  1.0890         0.361365   
     50. B(H  47,C  17)                  1.0891         0.361356   
     51. B(H  48,C  15)                  1.0890         0.361399   
     52. B(H  49,C  15)                  1.0889         0.361504   
     53. B(H  50,C  15)                  1.0890         0.361415   
     54. B(H  51,C  28)                  1.0890         0.361405   
     55. B(H  52,C  28)                  1.0890         0.361473   
     56. B(H  52,H  42)                  4.3433         0.000000   
     57. B(H  53,C  28)                  1.0890         0.361375   
     58. B(H  54,C  29)                  1.0890         0.361460   
     59. B(H  55,C  29)                  1.0891         0.361341   
     60. B(H  56,C  29)                  1.0889         0.361513   
     61. B(H  57,C  30)                  1.0890         0.361463   
     62. B(H  58,C  30)                  1.0891         0.361339   
     63. B(H  59,C  30)                  1.0890         0.361416   
     64. B(H  60,C  40)                  1.0890         0.361441   
     65. B(H  61,H  56)                  4.6402         0.000000   
     66. B(H  61,C  40)                  1.0890         0.361476   
     67. B(H  62,C  40)                  1.0889         0.361552   
     68. B(H  63,H  46)                  4.6595         0.000000   
     69. B(H  63,C  41)                  1.0890         0.361453   
     70. B(H  64,C  41)                  1.0889         0.361528   
     71. B(H  65,C  41)                  1.0891         0.361284   
     72. B(H  66,C  24)                  1.0890         0.361374   
     73. B(H  67,C  24)                  1.0889         0.361571   
     74. B(H  68,C  24)                  1.0890         0.361490   
     75. B(H  69,C  35)                  1.0891         0.361322   
     76. B(H  70,C  33)                  1.0891         0.361340   
     77. B(H  71,C  10)                  1.0889         0.361507   
     78. B(H  72,C   8)                  1.0890         0.361474   
     79. B(H  73,C  22)                  1.0890         0.361448   
     80. B(H  74,C  20)                  1.0890         0.361448   
     81. A(Cl  2,Fe  0,O   4)          108.5974         0.693915   
     82. A(Cl  1,Fe  0,O   4)          109.8897         0.674475   
     83. A(Cl  2,Fe  0,Cl  3)          107.8858         0.650887   
     84. A(Cl  1,Fe  0,Cl  3)          110.3215         0.632830   
     85. A(Cl  1,Fe  0,Cl  2)          109.3523         0.646659   
     86. A(Cl  3,Fe  0,O   4)          110.7424         0.678914   
     87. A(Fe  0,O   4,P   5)          163.6244         0.657470   
     88. A(C   6,P   5,C  18)          111.4092         0.461146   
     89. A(O   4,P   5,C  31)          108.5969         0.515604   
     90. A(O   4,P   5,C   6)          107.3356         0.529003   
     91. A(O   4,P   5,C  18)          107.1766         0.519367   
     92. A(C   6,P   5,C  31)          111.0332         0.457892   
     93. A(C  18,P   5,C  31)          111.0978         0.449813   
     94. A(P   5,C   6,C  11)          127.7248         0.452285   
     95. A(P   5,C   6,C   7)          119.6702         0.434622   
     96. A(C   7,C   6,C  11)          112.4461         0.419004   
     97. A(C   6,C   7,C   8)          125.2839         0.428852   
     98. A(C   6,C   7,O  12)          112.1045         0.412073   
     99. A(C   8,C   7,O  12)          122.5701         0.438717   
    100. A(C   7,C   8,C   9)          116.7238         0.438250   
    101. A(C   7,C   8,H  72)          121.6418         0.361728   
    102. A(C   9,C   8,H  72)          121.6344         0.347917   
    103. A(C   8,C   9,C  10)          123.2798         0.423975   
    104. A(C  10,C   9,O  13)          120.1947         0.424936   
    105. A(C   8,C   9,O  13)          116.5194         0.421515   
    106. A(C   9,C  10,C  11)          114.8910         0.431231   
    107. A(C   9,C  10,H  71)          122.5550         0.350586   
    108. A(C  11,C  10,H  71)          122.5540         0.353531   
    109. A(C   6,C  11,C  10)          127.3476         0.435476   
    110. A(C  10,C  11,O  14)          117.3515         0.420591   
    111. A(C   6,C  11,O  14)          115.2379         0.420967   
    112. A(C   7,O  12,C  15)          117.8050         0.402216   
    113. A(C   9,O  13,C  16)          120.2898         0.395246   
    114. A(C  11,O  14,C  17)          120.5250         0.390967   
    115. A(H  49,C  15,H  50)          109.4747         0.291184   
    116. A(H  48,C  15,H  49)          109.4776         0.291182   
    117. A(H  48,C  15,H  50)          109.4730         0.291171   
    118. A(O  12,C  15,H  50)          109.4639         0.333254   
    119. A(O  12,C  15,H  48)          109.4665         0.333252   
    120. A(O  12,C  15,H  49)          109.4717         0.333268   
    121. A(O  13,C  16,H  43)          109.4708         0.327444   
    122. A(H  42,C  16,H  43)          109.4685         0.291165   
    123. A(H  43,C  16,H  44)          109.4731         0.291167   
    124. A(O  13,C  16,H  44)          109.4752         0.327456   
    125. A(H  42,C  16,H  44)          109.4710         0.291175   
    126. A(O  13,C  16,H  42)          109.4686         0.327453   
    127. A(H  45,C  17,H  46)          109.4803         0.291168   
    128. A(H  45,C  17,H  47)          109.4754         0.291167   
    129. A(O  14,C  17,H  47)          109.4679         0.329876   
    130. A(H  46,C  17,H  47)          109.4675         0.291159   
    131. A(O  14,C  17,H  46)          109.4686         0.329877   
    132. A(O  14,C  17,H  45)          109.4676         0.329887   
    133. A(P   5,C  18,C  19)          124.9510         0.443029   
    134. A(C  19,C  18,C  23)          115.6351         0.430203   
    135. A(P   5,C  18,C  23)          119.3776         0.439809   
    136. A(C  18,C  19,C  20)          125.1122         0.429267   
    137. A(C  20,C  19,O  25)          117.5114         0.423189   
    138. A(C  18,C  19,O  25)          117.3720         0.427184   
    139. A(C  19,C  20,C  21)          114.8416         0.432796   
    140. A(C  21,C  20,H  74)          122.5779         0.355588   
    141. A(C  19,C  20,H  74)          122.5805         0.349735   
    142. A(C  20,C  21,C  22)          126.0766         0.437337   
    143. A(C  22,C  21,O  26)          118.8011         0.428064   
    144. A(C  20,C  21,O  26)          115.1211         0.431157   
    145. A(C  21,C  22,H  73)          122.5664         0.353179   
    146. A(C  21,C  22,C  23)          114.8666         0.422811   
    147. A(C  23,C  22,H  73)          122.5669         0.344472   
    148. A(C  22,C  23,O  27)          122.5028         0.421185   
    149. A(C  18,C  23,O  27)          114.0983         0.428962   
    150. A(C  18,C  23,C  22)          123.3813         0.419365   
    151. A(H  66,C  24,H  67)          109.4710         0.291187   
    152. A(O  39,C  24,H  68)          109.4725         0.335462   
    153. A(O  39,C  24,H  66)          109.4661         0.335445   
    154. A(H  66,C  24,H  68)          109.4695         0.291177   
    155. A(O  39,C  24,H  67)          109.4720         0.335475   
    156. A(H  67,C  24,H  68)          109.4763         0.291202   
    157. A(C  19,O  25,C  28)          120.1997         0.399402   
    158. A(C  21,O  26,C  29)          118.5038         0.398721   
    159. A(C  23,O  27,C  30)          117.4986         0.403345   
    160. A(H  52,C  28,H  53)          109.4699         0.291175   
    161. A(O  25,C  28,H  53)          109.4684         0.331166   
    162. A(H  51,C  28,H  52)          109.4705         0.291179   
    163. A(O  25,C  28,H  52)          109.4753         0.331180   
    164. A(O  25,C  28,H  51)          109.4716         0.331170   
    165. A(H  51,C  28,H  53)          109.4716         0.291166   
    166. A(H  55,C  29,H  56)          109.4679         0.291176   
    167. A(H  54,C  29,H  56)          109.4738         0.291191   
    168. A(O  26,C  29,H  56)          109.4716         0.330326   
    169. A(H  54,C  29,H  55)          109.4719         0.291169   
    170. A(O  26,C  29,H  55)          109.4696         0.330300   
    171. A(O  26,C  29,H  54)          109.4726         0.330318   
    172. A(H  58,C  30,H  59)          109.4680         0.291163   
    173. A(H  57,C  30,H  59)          109.4780         0.291179   
    174. A(O  27,C  30,H  59)          109.4701         0.330747   
    175. A(H  57,C  30,H  58)          109.4705         0.291169   
    176. A(O  27,C  30,H  58)          109.4675         0.330735   
    177. A(O  27,C  30,H  57)          109.4733         0.330754   
    178. A(C  32,C  31,C  36)          116.4579         0.437980   
    179. A(P   5,C  31,C  36)          118.8967         0.438939   
    180. A(P   5,C  31,C  32)          124.6376         0.445678   
    181. A(C  33,C  32,O  37)          117.7984         0.418187   
    182. A(C  31,C  32,O  37)          116.5142         0.433150   
    183. A(C  31,C  32,C  33)          125.6863         0.429235   
    184. A(C  34,C  33,H  70)          123.1590         0.351168   
    185. A(C  32,C  33,H  70)          123.1577         0.345494   
    186. A(C  32,C  33,C  34)          113.6833         0.421641   
    187. A(C  35,C  34,O  38)          115.7377         0.425214   
    188. A(C  33,C  34,O  38)          120.0032         0.421328   
    189. A(C  33,C  34,C  35)          124.2577         0.432975   
    190. A(C  36,C  35,H  69)          121.1631         0.349366   
    191. A(C  34,C  35,H  69)          121.1688         0.354231   
    192. A(C  34,C  35,C  36)          117.6682         0.430615   
    193. A(C  35,C  36,O  39)          121.6318         0.426543   
    194. A(C  31,C  36,O  39)          116.0551         0.430065   
    195. A(C  31,C  36,C  35)          122.1379         0.427849   
    196. A(C  32,O  37,C  40)          120.2223         0.400388   
    197. A(C  34,O  38,C  41)          117.5890         0.403491   
    198. A(C  24,O  39,C  36)          120.4128         0.408484   
    199. A(H  61,C  40,H  62)          109.4710         0.291198   
    200. A(H  60,C  40,H  62)          109.4743         0.291193   
    201. A(O  37,C  40,H  62)          109.4715         0.331658   
    202. A(H  60,C  40,H  61)          109.4710         0.291184   
    203. A(O  37,C  40,H  61)          109.4718         0.331646   
    204. A(O  37,C  40,H  60)          109.4678         0.331641   
    205. A(H  64,C  41,H  65)          109.4723         0.291171   
    206. A(H  63,C  41,H  65)          109.4657         0.291161   
    207. A(O  38,C  41,H  65)          109.4697         0.337088   
    208. A(H  63,C  41,H  64)          109.4750         0.291192   
    209. A(O  38,C  41,H  64)          109.4755         0.337126   
    210. A(O  38,C  41,H  63)          109.4693         0.337114   
    211. D(P   5,O   4,Fe  0,Cl  2)    170.9769         0.008731   
    212. D(P   5,O   4,Fe  0,Cl  1)     51.4028         0.008731   
    213. D(P   5,O   4,Fe  0,Cl  3)    -70.7332         0.008731   
    214. D(C  31,P   5,O   4,Fe  0)    -62.0320         0.018941   
    215. D(C  18,P   5,O   4,Fe  0)     58.0691         0.018941   
    216. D(C   6,P   5,O   4,Fe  0)    177.8533         0.018941   
    217. D(C   7,C   6,P   5,O   4)    -51.6849         0.005479   
    218. D(C  11,C   6,P   5,C  18)   -109.6914         0.005479   
    219. D(C  11,C   6,P   5,O   4)    133.2637         0.005479   
    220. D(C   7,C   6,P   5,C  18)     65.3600         0.005479   
    221. D(C   7,C   6,P   5,C  31)   -170.2372         0.005479   
    222. D(O  12,C   7,C   6,C  11)    175.9690         0.017251   
    223. D(O  12,C   7,C   6,P   5)      0.2026         0.017251   
    224. D(C   8,C   7,C   6,C  11)     -1.7309         0.017251   
    225. D(C   8,C   7,C   6,P   5)   -177.4973         0.017251   
    226. D(H  72,C   8,C   7,O  12)      4.5597         0.036048   
    227. D(H  72,C   8,C   7,C   6)   -177.9693         0.036048   
    228. D(C   9,C   8,C   7,O  12)   -175.4422         0.036048   
    229. D(C   9,C   8,C   7,C   6)      2.0288         0.036048   
    230. D(C  10,C   9,C   8,H  72)    178.6278         0.022098   
    231. D(O  13,C   9,C   8,C   7)    177.7274         0.022098   
    232. D(O  13,C   9,C   8,H  72)     -2.2745         0.022098   
    233. D(C  10,C   9,C   8,C   7)     -1.3703         0.022098   
    234. D(H  71,C  10,C   9,O  13)      1.4662         0.024292   
    235. D(H  71,C  10,C   9,C   8)   -179.4679         0.024292   
    236. D(C  11,C  10,C   9,O  13)   -178.5376         0.024292   
    237. D(C  11,C  10,C   9,C   8)      0.5283         0.024292   
    238. D(O  14,C  11,C   6,P   5)     -0.8716         0.027258   
    239. D(O  14,C  11,C   6,C   7)   -176.2200         0.027258   
    240. D(C  10,C  11,C   6,C   7)      0.7935         0.027258   
    241. D(C  10,C  11,C   6,P   5)    176.1419         0.027258   
    242. D(O  14,C  11,C  10,H  71)     -3.3214         0.026969   
    243. D(O  14,C  11,C  10,C   9)    176.6823         0.026969   
    244. D(C   6,C  11,C  10,H  71)    179.7201         0.026969   
    245. D(C   6,C  11,C  10,C   9)     -0.2762         0.026969   
    246. D(C  15,O  12,C   7,C   8)    -20.4160         0.025576   
    247. D(C  15,O  12,C   7,C   6)    161.8119         0.025576   
    248. D(C  16,O  13,C   9,C  10)      3.7853         0.025947   
    249. D(C  16,O  13,C   9,C   8)   -175.3419         0.025947   
    250. D(C  17,O  14,C  11,C  10)     30.7513         0.020715   
    251. D(C  17,O  14,C  11,C   6)   -151.9215         0.020715   
    252. D(H  50,C  15,O  12,C   7)    -59.9994         0.016317   
    253. D(H  49,C  15,O  12,C   7)   -179.9994         0.016317   
    254. D(H  48,C  15,O  12,C   7)     59.9954         0.016317   
    255. D(H  44,C  16,O  13,C   9)    -59.9989         0.013216   
    256. D(H  43,C  16,O  13,C   9)    179.9966         0.013216   
    257. D(H  42,C  16,O  13,C   9)     60.0017         0.013216   
    258. D(H  47,C  17,O  14,C  11)    -60.0036         0.014434   
    259. D(H  46,C  17,O  14,C  11)   -179.9954         0.014434   
    260. D(H  45,C  17,O  14,C  11)     59.9973         0.014434   
    261. D(C  23,C  18,P   5,C   6)   -170.2392         0.004747   
    262. D(C  23,C  18,P   5,O   4)    -53.0978         0.004747   
    263. D(C  19,C  18,P   5,C  31)   -112.3142         0.004747   
    264. D(C  19,C  18,P   5,C   6)     12.0522         0.004747   
    265. D(C  19,C  18,P   5,O   4)    129.1937         0.004747   
    266. D(O  25,C  19,C  18,C  23)   -176.2243         0.026336   
    267. D(O  25,C  19,C  18,P   5)      1.5610         0.026336   
    268. D(C  20,C  19,C  18,C  23)      2.9883         0.026336   
    269. D(C  20,C  19,C  18,P   5)   -179.2264         0.026336   
    270. D(H  74,C  20,C  19,O  25)     -1.7888         0.023577   
    271. D(H  74,C  20,C  19,C  18)    178.9996         0.023577   
    272. D(C  21,C  20,C  19,C  18)     -0.9972         0.023577   
    273. D(C  21,C  20,C  19,O  25)    178.2144         0.023577   
    274. D(O  26,C  21,C  20,H  74)     -2.1238         0.029020   
    275. D(O  26,C  21,C  20,C  19)    177.8729         0.029020   
    276. D(C  22,C  21,C  20,H  74)    178.2644         0.029020   
    277. D(C  22,C  21,C  20,C  19)     -1.7389         0.029020   
    278. D(H  73,C  22,C  21,O  26)      2.4784         0.026643   
    279. D(H  73,C  22,C  21,C  20)   -177.9227         0.026643   
    280. D(C  23,C  22,C  21,O  26)   -177.5137         0.026643   
    281. D(C  23,C  22,C  21,C  20)      2.0852         0.026643   
    282. D(O  27,C  23,C  22,C  21)   -178.1665         0.019553   
    283. D(C  18,C  23,C  22,H  73)   -179.7741         0.019553   
    284. D(C  18,C  23,C  22,C  21)      0.2180         0.019553   
    285. D(O  27,C  23,C  18,C  19)    175.9695         0.024185   
    286. D(O  27,C  23,C  18,P   5)     -1.9473         0.024185   
    287. D(C  22,C  23,C  18,C  19)     -2.5380         0.024185   
    288. D(O  27,C  23,C  22,H  73)      1.8414         0.019553   
    289. D(C  22,C  23,C  18,P   5)    179.5452         0.024185   
    290. D(C  28,O  25,C  19,C  20)     14.2898         0.025465   
    291. D(C  28,O  25,C  19,C  18)   -166.4364         0.025465   
    292. D(C  29,O  26,C  21,C  22)     -0.1627         0.025793   
    293. D(C  29,O  26,C  21,C  20)   -179.8047         0.025793   
    294. D(C  30,O  27,C  23,C  22)    -11.5279         0.029171   
    295. D(C  30,O  27,C  23,C  18)    169.9499         0.029171   
    296. D(H  53,C  28,O  25,C  19)    -60.0059         0.015126   
    297. D(H  52,C  28,O  25,C  19)    179.9950         0.015126   
    298. D(H  51,C  28,O  25,C  19)     59.9931         0.015126   
    299. D(H  56,C  29,O  26,C  21)    -60.0089         0.014660   
    300. D(H  55,C  29,O  26,C  21)    179.9960         0.014660   
    301. D(H  54,C  29,O  26,C  21)     59.9953         0.014660   
    302. D(H  59,C  30,O  27,C  23)    -60.0062         0.014894   
    303. D(H  58,C  30,O  27,C  23)   -179.9993         0.014894   
    304. D(H  57,C  30,O  27,C  23)     60.0026         0.014894   
    305. D(C  36,C  31,P   5,C   6)     75.1547         0.004496   
    306. D(C  36,C  31,P   5,O   4)    -42.6340         0.004496   
    307. D(C  32,C  31,P   5,C  18)     20.7935         0.004496   
    308. D(C  32,C  31,P   5,C   6)   -103.7856         0.004496   
    309. D(C  32,C  31,P   5,O   4)    138.4258         0.004496   
    310. D(O  37,C  32,C  31,C  36)   -176.3782         0.030693   
    311. D(O  37,C  32,C  31,P   5)      2.5854         0.030693   
    312. D(C  33,C  32,C  31,C  36)      4.0091         0.030693   
    313. D(C  33,C  32,C  31,P   5)   -177.0272         0.030693   
    314. D(H  70,C  33,C  32,O  37)     -1.8632         0.020290   
    315. D(H  70,C  33,C  32,C  31)    177.7451         0.020290   
    316. D(C  34,C  33,C  32,O  37)    178.1417         0.020290   
    317. D(C  34,C  33,C  32,C  31)     -2.2501         0.020290   
    318. D(O  38,C  34,C  33,H  70)     -0.6028         0.024823   
    319. D(O  38,C  34,C  33,C  32)    179.3924         0.024823   
    320. D(C  35,C  34,C  33,H  70)    179.8424         0.024823   
    321. D(C  35,C  34,C  33,C  32)     -0.1624         0.024823   
    322. D(H  69,C  35,C  34,O  38)      0.9609         0.027677   
    323. D(H  69,C  35,C  34,C  33)   -179.4671         0.027677   
    324. D(C  36,C  35,C  34,O  38)   -179.0376         0.027677   
    325. D(C  36,C  35,C  34,C  33)      0.5344         0.027677   
    326. D(O  39,C  36,C  35,C  34)   -173.6427         0.023287   
    327. D(C  31,C  36,C  35,H  69)   -178.6435         0.023287   
    328. D(C  31,C  36,C  35,C  34)      1.3550         0.023287   
    329. D(O  39,C  36,C  31,C  32)    171.8073         0.025646   
    330. D(O  39,C  36,C  31,P   5)     -7.2187         0.025646   
    331. D(C  35,C  36,C  31,C  32)     -3.4523         0.025646   
    332. D(O  39,C  36,C  35,H  69)      6.3587         0.023287   
    333. D(C  35,C  36,C  31,P   5)    177.5216         0.025646   
    334. D(C  40,O  37,C  32,C  33)     16.3782         0.025766   
    335. D(C  40,O  37,C  32,C  31)   -163.2662         0.025766   
    336. D(C  41,O  38,C  34,C  35)    176.7182         0.022951   
    337. D(C  41,O  38,C  34,C  33)     -2.8733         0.022951   
    338. D(C  24,O  39,C  36,C  35)    -19.5636         0.028336   
    339. D(C  24,O  39,C  36,C  31)    165.1507         0.028336   
    340. D(C  36,O  39,C  24,H  68)    -59.9949         0.017679   
    341. D(C  36,O  39,C  24,H  67)    179.9976         0.017679   
    342. D(C  36,O  39,C  24,H  66)     60.0005         0.017679   
    343. D(H  62,C  40,O  37,C  32)    -59.9996         0.015384   
    344. D(H  61,C  40,O  37,C  32)   -179.9999         0.015384   
    345. D(H  60,C  40,O  37,C  32)     60.0022         0.015384   
    346. D(H  65,C  41,O  38,C  34)    -59.9932         0.018781   
    347. D(H  64,C  41,O  38,C  34)   -179.9961         0.018781   
    348. D(H  63,C  41,O  38,C  34)     59.9979         0.018781   
    -----------------------------------------------------------------

Number of atoms                         .... 75
Number of degrees of freedom            .... 348


         *************************************************************
         *                GEOMETRY OPTIMIZATION CYCLE   1            *
         *************************************************************
---------------------------------
CARTESIAN COORDINATES (ANGSTROEM)
---------------------------------
  Fe     6.900100   10.922400    0.936900
  Cl     7.018200   13.099200    1.193900
  Cl     4.881100   10.267100    1.313400
  Cl     8.210400    9.916700    2.368800
  O      7.339700   10.482300   -0.743100
  P      8.071000   10.351600   -2.101700
  C      7.111300    9.275000   -3.112900
  C      6.706400    7.981500   -2.600800
  C      6.011900    7.048800   -3.293600
  C      5.697400    7.358300   -4.639200
  C      6.045000    8.572600   -5.251800
  C      6.740000    9.460500   -4.438400
  O      7.153900    7.769700   -1.318500
  O      5.035300    6.390000   -5.352200
  O      7.175300   10.660000   -5.018800
  C      6.510800    6.732700   -0.542200
  C      4.757500    6.582500   -6.788100
  C      6.415500   11.278400   -6.105300
  C      9.687500    9.664400   -1.767300
  C     10.237200    8.562900   -2.420000
  C     11.502900    8.009700   -2.148900
  C     12.221400    8.659600   -1.164800
  C     11.818500    9.797600   -0.472000
  C     10.514000   10.280200   -0.813400
  C      4.854900   13.146900   -1.917900
  O      9.490100    7.981200   -3.417200
  O     13.437900    8.097600   -0.863600
  O      9.982100   11.399800   -0.259100
  C      9.855200    6.670200   -3.936300
  C     14.258000    8.723400    0.170700
  C     10.668600   11.972000    0.893700
  C      8.202600   11.985600   -2.841800
  C      9.318600   12.464200   -3.484400
  C      9.468800   13.775900   -4.026700
  C      8.324300   14.573300   -3.896100
  C      7.142900   14.152400   -3.303700
  C      7.098900   12.840200   -2.791600
  O     10.377600   11.597300   -3.601900
  O      8.330300   15.879100   -4.368100
  O      5.945800   12.300100   -2.309600
  C     11.702900   12.100400   -3.926300
  C      9.548800   16.376800   -4.920400
  H      5.696300    6.705600   -7.326100
  H      4.228600    5.712800   -7.175300
  H      4.142600    7.471100   -6.923000
  H      5.409400   11.509800   -5.758700
  H      6.911600   12.195800   -6.418800
  H      6.360100   10.589800   -6.947200
  H      6.629300    5.775100   -1.047100
  H      6.968000    6.681800    0.444800
  H      5.450800    6.960500   -0.440000
  H      9.827500    5.939600   -3.129200
  H      9.151000    6.378700   -4.714100
  H     10.860200    6.712100   -4.353700
  H     13.712700    8.727500    1.113300
  H     15.183600    8.161900    0.289200
  H     14.489200    9.747200   -0.119400
  H     11.684600   12.245000    0.612500
  H     10.134400   12.859200    1.230700
  H     10.699100   11.239100    1.698600
  H     12.023500   12.801100   -3.156800
  H     12.404700   11.269200   -3.975500
  H     11.672900   12.607600   -4.889400
  H      9.839000   15.762700   -5.771600
  H      9.405800   17.405700   -5.247000
  H     10.331400   16.341500   -4.163800
  H      4.527300   13.735800   -2.773400
  H      4.028800   12.533300   -1.561900
  H      5.181100   13.814100   -1.121500
  H      6.279500   14.812800   -3.236600
  H     10.386900   14.124200   -4.497700
  H      5.789700    8.801700   -6.285300
  H      5.709800    6.106700   -2.838600
  H     12.447000   10.283700    0.272700
  H     11.886000    7.136400   -2.674700

----------------------------
CARTESIAN COORDINATES (A.U.)
----------------------------
  NO LB      ZA    FRAG     MASS         X           Y           Z
   0 Fe   26.0000    0    55.850   13.039299   20.640345    1.770484
   1 Cl   17.0000    0    35.453   13.262476   24.753901    2.256144
   2 Cl   17.0000    0    35.453    9.223942   19.402007    2.481966
   3 Cl   17.0000    0    35.453   15.515407   18.739847    4.476383
   4 O     8.0000    0    15.999   13.870023   19.808676   -1.404255
   5 P    15.0000    0    30.974   15.251980   19.561689   -3.971637
   6 C     6.0000    0    12.011   13.438409   17.527210   -5.882528
   7 C     6.0000    0    12.011   12.673259   15.082849   -4.914800
   8 C     6.0000    0    12.011   11.360845   13.320302   -6.224002
   9 C     6.0000    0    12.011   10.766526   13.905172   -8.766817
  10 C     6.0000    0    12.011   11.423394   16.199866   -9.924464
  11 C     6.0000    0    12.011   12.736754   17.877754   -8.387360
  12 O     8.0000    0    15.999   13.518912   14.682605   -2.491604
  13 O     8.0000    0    15.999    9.515338   12.075350  -10.114192
  14 O     8.0000    0    15.999   13.559352   20.144481   -9.484158
  15 C     6.0000    0    12.011   12.303629   12.722959   -1.024610
  16 C     6.0000    0    12.011    8.990372   12.439122  -12.827650
  17 C     6.0000    0    12.011   12.123538   21.313087  -11.537345
  18 C     6.0000    0    12.011   18.306722   18.263069   -3.339713
  19 C     6.0000    0    12.011   19.345504   16.181536   -4.573137
  20 C     6.0000    0    12.011   21.737331   15.136139   -4.060832
  21 C     6.0000    0    12.011   23.095099   16.364272   -2.201153
  22 C     6.0000    0    12.011   22.333728   18.514781   -0.891951
  23 C     6.0000    0    12.011   19.868581   19.426763   -1.537103
  24 C     6.0000    0    12.011    9.174431   24.844041   -3.624306
  25 O     8.0000    0    15.999   17.933690   15.082282   -6.457572
  26 O     8.0000    0    15.999   25.393951   15.302246   -1.631967
  27 O     8.0000    0    15.999   18.863435   21.542500   -0.489628
  28 C     6.0000    0    12.011   18.623629   12.604851   -7.438529
  29 C     6.0000    0    12.011   26.943715   16.484837    0.322576
  30 C     6.0000    0    12.011   20.160732   22.623801    1.688848
  31 C     6.0000    0    12.011   15.500668   22.649502   -5.370224
  32 C     6.0000    0    12.011   17.609602   23.553924   -6.584562
  33 C     6.0000    0    12.011   17.893439   26.032678   -7.609360
  34 C     6.0000    0    12.011   15.730647   27.539546   -7.362562
  35 C     6.0000    0    12.011   13.498125   26.744160   -6.243088
  36 C     6.0000    0    12.011   13.414977   24.264462   -5.275359
  37 O     8.0000    0    15.999   19.610822   21.915721   -6.806605
  38 O     8.0000    0    15.999   15.741986   30.007150   -8.254513
  39 O     8.0000    0    15.999   11.235934   23.243820   -4.364511
  40 C     6.0000    0    12.011   22.115276   22.866442   -7.419632
  41 C     6.0000    0    12.011   18.044617   30.947667   -9.298208
  42 H     1.0000    0     1.008   10.764447   12.671748  -13.844323
  43 H     1.0000    0     1.008    7.990896   10.795627  -13.559352
  44 H     1.0000    0     1.008    7.828379   14.118333  -13.082574
  45 H     1.0000    0     1.008   10.222285   21.750370  -10.882366
  46 H     1.0000    0     1.008   13.061031   23.046722  -12.129774
  47 H     1.0000    0     1.008   12.018847   20.011822  -13.128305
  48 H     1.0000    0     1.008   12.527561   10.913357   -1.978732
  49 H     1.0000    0     1.008   13.167612   12.626772    0.840550
  50 H     1.0000    0     1.008   10.300519   13.153439   -0.831479
  51 H     1.0000    0     1.008   18.571284   11.224217   -5.913331
  52 H     1.0000    0     1.008   17.292884   12.053996   -8.908358
  53 H     1.0000    0     1.008   20.522804   12.684031   -8.227301
  54 H     1.0000    0     1.008   25.913248   16.492585    2.103832
  55 H     1.0000    0     1.008   28.692846   15.423756    0.546509
  56 H     1.0000    0     1.008   27.380620   18.419539   -0.225633
  57 H     1.0000    0     1.008   22.080694   23.139697    1.157457
  58 H     1.0000    0     1.008   19.151241   24.300366    2.325686
  59 H     1.0000    0     1.008   20.218369   21.238821    3.209889
  60 H     1.0000    0     1.008   22.721122   24.190573   -5.965487
  61 H     1.0000    0     1.008   23.441486   21.295702   -7.512606
  62 H     1.0000    0     1.008   22.058584   23.824911   -9.239627
  63 H     1.0000    0     1.008   18.593015   29.787186  -10.906743
  64 H     1.0000    0     1.008   17.774386   32.892006   -9.915393
  65 H     1.0000    0     1.008   19.523517   30.880960   -7.868442
  66 H     1.0000    0     1.008    8.555357   25.956900   -5.240966
  67 H     1.0000    0     1.008    7.613329   23.684505   -2.951563
  68 H     1.0000    0     1.008    9.790860   26.104866   -2.119328
  69 H     1.0000    0     1.008   11.866535   27.992135   -6.116288
  70 H     1.0000    0     1.008   19.628396   26.690870   -8.499421
  71 H     1.0000    0     1.008   10.940947   16.632803  -11.877496
  72 H     1.0000    0     1.008   10.789958   11.539991   -5.364177
  73 H     1.0000    0     1.008   23.521421   19.433377    0.515328
  74 H     1.0000    0     1.008   22.461285   13.485842   -5.054450

--------------------------------
INTERNAL COORDINATES (ANGSTROEM)
--------------------------------
 Fe     0   0   0     0.000000000000     0.00000000     0.00000000
 Cl     1   0   0     2.195097913534     0.00000000     0.00000000
 Cl     1   2   0     2.155813382461   109.35226077     0.00000000
 Cl     1   2   3     2.186013767111   110.32148335   241.49812368
 O      1   2   3     1.791462020250   109.88965907   119.11240638
 P      5   1   2     1.548443134248   163.62442123    51.40278519
 C      6   5   1     1.761424732993   107.33563538   177.85330070
 C      7   6   5     1.448907405599   119.67024504   308.31511025
 C      8   7   6     1.353599416371   125.28389386   182.50270511
 C      9   8   7     1.416100229504   116.72382647     2.02884957
 C     10   9   8     1.403790942413   123.27975968   358.62969339
 C      7   6   5     1.388965150751   127.72477209   133.26372971
 O      8   7   6     1.374557667033   112.10452049     0.20255752
 O     10   9   8     1.372716394599   116.51938995   177.72738061
 O     12   7   6     1.401838257432   115.23785388   359.12843723
 C     13   8   7     1.446232450196   117.80504686   161.81194170
 C     14  10   9     1.475139959461   120.28976660   184.65805461
 C     15  12   7     1.462941164230   120.52501206   208.07850467
 C      6   5   1     1.788054655205   107.17661615    58.06909116
 C     19   6   5     1.393373471112   124.95098622   129.19367206
 C     20  19   6     1.407665421895   125.11216603   180.77359373
 C     21  20  19     1.380965267485   114.84162610   359.00282988
 C     22  21  20     1.391885142532   126.07662050   358.26109313
 C     19   6   5     1.404363592522   119.37762594   306.90221925
 C      2   1   3     3.790176964206    83.43376229   291.88899426
 O     20  19   6     1.375114955195   117.37201144     1.56098227
 O     22  21  20     1.373476497797   115.12113146   177.87289099
 O     24  19   6     1.357818198435   114.09828225   358.05266782
 C     26  20  19     1.456531434608   120.19971155   193.56355845
 C     27  22  21     1.460810097172   118.50381618   180.19531963
 C     28  24  19     1.458644209532   117.49855431   169.94986336
 C      6   5   1     1.798616849137   108.59686629   297.96798646
 C     32   6   5     1.373844503574   124.63756035   138.42579515
 C     33  32   6     1.427307332007   125.68632181   182.97275160
 C     34  33  32     1.400993708052   113.68332225   357.74987415
 C     35  34  33     1.387011366212   124.25766287   359.83760572
 C     32   6   5     1.396787346019   118.89669827   317.36603883
 O     33  32   6     1.373609427749   116.51424199     2.58544676
 O     35  34  33     1.388500500540   120.00321360   179.39236307
 O     37  32   6     1.361496096212   116.05512149   352.78126853
 C     38  33  32     1.454223180946   120.22232209   196.73381191
 C     39  35  34     1.427404227961   117.58900715   357.12669840
 H     17  14  10     1.089010123920   109.46863032    60.00165651
 H     17  14  10     1.089053322845   109.47082817   179.99655169
 H     17  14  10     1.088994940300   109.47516686   300.00105086
 H     18  15  12     1.088997121208   109.46761214    59.99730627
 H     18  15  12     1.089045554603   109.46859913   180.00456570
 H     18  15  12     1.089052216379   109.46793742   299.99639705
 H     16  13   8     1.089019751887   109.46651630    59.99543920
 H     16  13   8     1.088940609032   109.47169649   180.00061046
 H     16  13   8     1.089007658375   109.46385815   300.00062364
 H     29  26  20     1.089015178958   109.47158230    59.99311189
 H     29  26  20     1.088964062768   109.47526661   179.99497489
 H     29  26  20     1.089037818443   109.46844947   299.99408897
 H     30  27  22     1.088973672776   109.47256476    59.99532696
 H     30  27  22     1.089063753873   109.46958957   179.99597617
 H     30  27  22     1.088934290947   109.47155151   299.99113463
 H     31  28  24     1.088971276022   109.47326207    60.00261835
 H     31  28  24     1.089064956740   109.46746049   180.00067767
 H     31  28  24     1.089007194650   109.47008223   299.99375554
 H     41  38  33     1.088988108291   109.46777845    60.00217590
 H     41  38  33     1.088961578753   109.47179280   180.00013120
 H     41  38  33     1.088904701983   109.47145628   300.00035341
 H     42  39  35     1.088979471799   109.46930192    59.99789096
 H     42  39  35     1.088922297503   109.47546072   180.00388381
 H     42  39  35     1.089106243670   109.46968921   300.00680856
 H     25   2   1     1.089038667817   145.43214066   202.09881050
 H     25   2   1     1.088890338831    99.06204744    56.36904247
 H     25   2   1     1.088951440607    40.20750689   165.90031581
 H     36  35  34     1.089077651042   121.16878557   180.53289581
 H     34  33  32     1.089064506813   123.15765426   177.74505172
 H     11  10   9     1.088938542802   122.55499830   180.53206672
 H      9   8   7     1.088963644940   121.64177306   182.03074245
 H     23  22  21     1.088982805190   122.56641803   182.07730617
 H     21  20  19     1.088983076085   122.58049319   178.99955749

---------------------------
INTERNAL COORDINATES (A.U.)
---------------------------
 Fe     0   0   0     0.000000000000     0.00000000     0.00000000
 Cl     1   0   0     4.148133893721     0.00000000     0.00000000
 Cl     1   2   0     4.073896888695   109.35226077     0.00000000
 Cl     1   2   3     4.130967344822   110.32148335   241.49812368
 O      1   2   3     3.385372597595   109.88965907   119.11240638
 P      5   1   2     2.926133457680   163.62442123    51.40278519
 C      6   5   1     3.328610350872   107.33563538   177.85330070
 C      7   6   5     2.738038189993   119.67024504   308.31511025
 C      8   7   6     2.557932191977   125.28389386   182.50270511
 C      9   8   7     2.676041611945   116.72382647     2.02884957
 C     10   9   8     2.652780430439   123.27975968   358.62969339
 C      7   6   5     2.624763744480   127.72477209   133.26372971
 O      8   7   6     2.597537545975   112.10452049     0.20255752
 O     10   9   8     2.594058045335   116.51938995   177.72738061
 O     12   7   6     2.649090390600   115.23785388   359.12843723
 C     13   8   7     2.732983256860   117.80504686   161.81194170
 C     14  10   9     2.787610532586   120.28976660   184.65805461
 C     15  12   7     2.764558150435   120.52501206   208.07850467
 C      6   5   1     3.378933610820   107.17661615    58.06909116
 C     19   6   5     2.633094262674   124.95098622   129.19367206
 C     20  19   6     2.660102135573   125.11216603   180.77359373
 C     21  20  19     2.609646156004   114.84162610   359.00282988
 C     22  21  20     2.630281729259   126.07662050   358.26109313
 C     19   6   5     2.653862582315   119.37762594   306.90221925
 C      2   1   3     7.162396461447    83.43376229   291.88899426
 O     20  19   6     2.598590667977   117.37201144     1.56098227
 O     22  21  20     2.595494432213   115.12113146   177.87289099
 O     24  19   6     2.565904534696   114.09828225   358.05266782
 C     26  20  19     2.752445516856   120.19971155   193.56355845
 C     27  22  21     2.760531017322   118.50381618   180.19531963
 C     28  24  19     2.756438082845   117.49855431   169.94986336
 C      6   5   1     3.398893264726   108.59686629   297.96798646
 C     32   6   5     2.596189862348   124.63756035   138.42579515
 C     33  32   6     2.697219966430   125.68632181   182.97275160
 C     34  33  32     2.647494423564   113.68332225   357.74987415
 C     35  34  33     2.621071626776   124.25766287   359.83760572
 C     32   6   5     2.639545551303   118.89669827   317.36603883
 O     33  32   6     2.595745633417   116.51424199     2.58544676
 O     35  34  33     2.623885682833   120.00321360   179.39236307
 O     37  32   6     2.572854754243   116.05512149   352.78126853
 C     38  33  32     2.748083549587   120.22232209   196.73381191
 C     39  35  34     2.697403073247   117.58900715   357.12669840
 H     17  14  10     2.057930891276   109.46863032    60.00165651
 H     17  14  10     2.058012525414   109.47082817   179.99655169
 H     17  14  10     2.057902198394   109.47516686   300.00105086
 H     18  15  12     2.057906319712   109.46761214    59.99730627
 H     18  15  12     2.057997845564   109.46859913   180.00456570
 H     18  15  12     2.058010434496   109.46793742   299.99639705
 H     16  13   8     2.057949085497   109.46651630    59.99543920
 H     16  13   8     2.057799527177   109.47169649   180.00061046
 H     16  13   8     2.057926232072   109.46385815   300.00062364
 H     29  26  20     2.057940443913   109.47158230    59.99311189
 H     29  26  20     2.057843848314   109.47526661   179.99497489
 H     29  26  20     2.057983226341   109.46844947   299.99408897
 H     30  27  22     2.057862008598   109.47256476    59.99532696
 H     30  27  22     2.058032237200   109.46958957   179.99597617
 H     30  27  22     2.057787587725   109.47155151   299.99113463
 H     31  28  24     2.057857479387   109.47326207    60.00261835
 H     31  28  24     2.058034510290   109.46746049   180.00067767
 H     31  28  24     2.057925355759   109.47008223   299.99375554
 H     41  38  33     2.057889287768   109.46777845    60.00217590
 H     41  38  33     2.057839154205   109.47179280   180.00013120
 H     41  38  33     2.057731672686   109.47145628   300.00035341
 H     42  39  35     2.057872967163   109.46930192    59.99789096
 H     42  39  35     2.057764923402   109.47546072   180.00388381
 H     42  39  35     2.058112531279   109.46968921   300.00680856
 H     25   2   1     2.057984831424   145.43214066   202.09881050
 H     25   2   1     2.057704530264    99.06204744    56.36904247
 H     25   2   1     2.057819995886    40.20750689   165.90031581
 H     36  35  34     2.058058499044   121.16878557   180.53289581
 H     34  33  32     2.058033660051   123.15765426   177.74505172
 H     11  10   9     2.057795622567   122.55499830   180.53206672
 H      9   8   7     2.057843058732   121.64177306   182.03074245
 H     23  22  21     2.057879266359   122.56641803   182.07730617
 H     21  20  19     2.057879778276   122.58049319   178.99955749

---------------------
BASIS SET INFORMATION
---------------------
There are 6 groups of distinct atoms

 Group   1 Type Fe  : 17s11p7d1f contracted to 6s4p4d1f pattern {842111/6311/4111/1}
 Group   2 Type Cl  : 14s9p3d1f contracted to 5s5p2d1f pattern {73211/51111/21/1}
 Group   3 Type O   : 11s6p2d1f contracted to 5s3p2d1f pattern {62111/411/11/1}
 Group   4 Type P   : 14s9p3d1f contracted to 5s5p2d1f pattern {73211/51111/21/1}
 Group   5 Type C   : 11s6p2d1f contracted to 5s3p2d1f pattern {62111/411/11/1}
 Group   6 Type H   : 5s1p contracted to 3s1p pattern {311/1}

Atom   0Fe   basis set group =>   1
Atom   1Cl   basis set group =>   2
Atom   2Cl   basis set group =>   2
Atom   3Cl   basis set group =>   2
Atom   4O    basis set group =>   3
Atom   5P    basis set group =>   4
Atom   6C    basis set group =>   5
Atom   7C    basis set group =>   5
Atom   8C    basis set group =>   5
Atom   9C    basis set group =>   5
Atom  10C    basis set group =>   5
Atom  11C    basis set group =>   5
Atom  12O    basis set group =>   3
Atom  13O    basis set group =>   3
Atom  14O    basis set group =>   3
Atom  15C    basis set group =>   5
Atom  16C    basis set group =>   5
Atom  17C    basis set group =>   5
Atom  18C    basis set group =>   5
Atom  19C    basis set group =>   5
Atom  20C    basis set group =>   5
Atom  21C    basis set group =>   5
Atom  22C    basis set group =>   5
Atom  23C    basis set group =>   5
Atom  24C    basis set group =>   5
Atom  25O    basis set group =>   3
Atom  26O    basis set group =>   3
Atom  27O    basis set group =>   3
Atom  28C    basis set group =>   5
Atom  29C    basis set group =>   5
Atom  30C    basis set group =>   5
Atom  31C    basis set group =>   5
Atom  32C    basis set group =>   5
Atom  33C    basis set group =>   5
Atom  34C    basis set group =>   5
Atom  35C    basis set group =>   5
Atom  36C    basis set group =>   5
Atom  37O    basis set group =>   3
Atom  38O    basis set group =>   3
Atom  39O    basis set group =>   3
Atom  40C    basis set group =>   5
Atom  41C    basis set group =>   5
Atom  42H    basis set group =>   6
Atom  43H    basis set group =>   6
Atom  44H    basis set group =>   6
Atom  45H    basis set group =>   6
Atom  46H    basis set group =>   6
Atom  47H    basis set group =>   6
Atom  48H    basis set group =>   6
Atom  49H    basis set group =>   6
Atom  50H    basis set group =>   6
Atom  51H    basis set group =>   6
Atom  52H    basis set group =>   6
Atom  53H    basis set group =>   6
Atom  54H    basis set group =>   6
Atom  55H    basis set group =>   6
Atom  56H    basis set group =>   6
Atom  57H    basis set group =>   6
Atom  58H    basis set group =>   6
Atom  59H    basis set group =>   6
Atom  60H    basis set group =>   6
Atom  61H    basis set group =>   6
Atom  62H    basis set group =>   6
Atom  63H    basis set group =>   6
Atom  64H    basis set group =>   6
Atom  65H    basis set group =>   6
Atom  66H    basis set group =>   6
Atom  67H    basis set group =>   6
Atom  68H    basis set group =>   6
Atom  69H    basis set group =>   6
Atom  70H    basis set group =>   6
Atom  71H    basis set group =>   6
Atom  72H    basis set group =>   6
Atom  73H    basis set group =>   6
Atom  74H    basis set group =>   6
---------------------------------
AUXILIARY/J BASIS SET INFORMATION
---------------------------------
There are 6 groups of distinct atoms

 Group   1 Type Fe  : 19s5p5d3f3g contracted to 8s5p5d2f3g pattern {121111111/11111/11111/21/111}
 Group   2 Type Cl  : 14s5p5d2f1g contracted to 8s4p3d1f1g pattern {71111111/2111/311/2/1}
 Group   3 Type O   : 12s5p4d2f1g contracted to 6s4p3d1f1g pattern {711111/2111/211/2/1}
 Group   4 Type P   : 14s5p5d2f1g contracted to 8s4p3d1f1g pattern {71111111/2111/311/2/1}
 Group   5 Type C   : 12s5p4d2f1g contracted to 6s4p3d1f1g pattern {711111/2111/211/2/1}
 Group   6 Type H   : 5s2p1d contracted to 3s1p1d pattern {311/2/1}

Atom   0Fe   basis set group =>   1
Atom   1Cl   basis set group =>   2
Atom   2Cl   basis set group =>   2
Atom   3Cl   basis set group =>   2
Atom   4O    basis set group =>   3
Atom   5P    basis set group =>   4
Atom   6C    basis set group =>   5
Atom   7C    basis set group =>   5
Atom   8C    basis set group =>   5
Atom   9C    basis set group =>   5
Atom  10C    basis set group =>   5
Atom  11C    basis set group =>   5
Atom  12O    basis set group =>   3
Atom  13O    basis set group =>   3
Atom  14O    basis set group =>   3
Atom  15C    basis set group =>   5
Atom  16C    basis set group =>   5
Atom  17C    basis set group =>   5
Atom  18C    basis set group =>   5
Atom  19C    basis set group =>   5
Atom  20C    basis set group =>   5
Atom  21C    basis set group =>   5
Atom  22C    basis set group =>   5
Atom  23C    basis set group =>   5
Atom  24C    basis set group =>   5
Atom  25O    basis set group =>   3
Atom  26O    basis set group =>   3
Atom  27O    basis set group =>   3
Atom  28C    basis set group =>   5
Atom  29C    basis set group =>   5
Atom  30C    basis set group =>   5
Atom  31C    basis set group =>   5
Atom  32C    basis set group =>   5
Atom  33C    basis set group =>   5
Atom  34C    basis set group =>   5
Atom  35C    basis set group =>   5
Atom  36C    basis set group =>   5
Atom  37O    basis set group =>   3
Atom  38O    basis set group =>   3
Atom  39O    basis set group =>   3
Atom  40C    basis set group =>   5
Atom  41C    basis set group =>   5
Atom  42H    basis set group =>   6
Atom  43H    basis set group =>   6
Atom  44H    basis set group =>   6
Atom  45H    basis set group =>   6
Atom  46H    basis set group =>   6
Atom  47H    basis set group =>   6
Atom  48H    basis set group =>   6
Atom  49H    basis set group =>   6
Atom  50H    basis set group =>   6
Atom  51H    basis set group =>   6
Atom  52H    basis set group =>   6
Atom  53H    basis set group =>   6
Atom  54H    basis set group =>   6
Atom  55H    basis set group =>   6
Atom  56H    basis set group =>   6
Atom  57H    basis set group =>   6
Atom  58H    basis set group =>   6
Atom  59H    basis set group =>   6
Atom  60H    basis set group =>   6
Atom  61H    basis set group =>   6
Atom  62H    basis set group =>   6
Atom  63H    basis set group =>   6
Atom  64H    basis set group =>   6
Atom  65H    basis set group =>   6
Atom  66H    basis set group =>   6
Atom  67H    basis set group =>   6
Atom  68H    basis set group =>   6
Atom  69H    basis set group =>   6
Atom  70H    basis set group =>   6
Atom  71H    basis set group =>   6
Atom  72H    basis set group =>   6
Atom  73H    basis set group =>   6
Atom  74H    basis set group =>   6


           ************************************************************
           *        Program running with 16 parallel MPI-processes    *
           *              working on a common directory               *
           ************************************************************
------------------------------------------------------------------------------
                             ORCA STARTUP CALCULATIONS
                           -- RI-GTO INTEGRALS CHOSEN --
------------------------------------------------------------------------------
------------------------------------------------------------------------------
                   ___                                                        
                  /   \      - P O W E R E D   B Y -                         
                 /     \                                                     
                 |  |  |   _    _      __       _____    __    __             
                 |  |  |  | |  | |    /  \     |  _  \  |  |  /  |          
                  \  \/   | |  | |   /    \    | | | |  |  | /  /          
                 / \  \   | |__| |  /  /\  \   | |_| |  |  |/  /          
                |  |  |   |  __  | /  /__\  \  |    /   |      \           
                |  |  |   | |  | | |   __   |  |    \   |  |\   \          
                \     /   | |  | | |  |  |  |  | |\  \  |  | \   \       
                 \___/    |_|  |_| |__|  |__|  |_| \__\ |__|  \__/        
                                                                              
                      - O R C A' S   B I G   F R I E N D -                    
                                      &                                       
                       - I N T E G R A L  F E E D E R -                       
                                                                              
 v1 FN, 2020, v2 2021, v3 2022-2024                                           
------------------------------------------------------------------------------


----------------------
SHARK INTEGRAL PACKAGE
----------------------

Number of atoms                             ...     75
Number of basis functions                   ...   1538
Number of shells                            ...    606
Maximum angular momentum                    ...      3
Integral batch strategy                     ... SHARK/LIBINT Hybrid
RI-J (if used) integral strategy            ... SPLIT-RIJ (Revised 2003 algorithm where possible)
Printlevel                                  ...      1
Contraction scheme used                     ... SEGMENTED contraction
Prescreening option                         ... SCHWARTZ
   Thresh                                   ... 2.500e-11
   Tcut                                     ... 2.500e-12
   Tpresel                                  ... 2.500e-12 
Coulomb Range Separation                    ... NOT USED
Exchange Range Separation                   ... NOT USED
Multipole approximations                    ... NOT USED
Finite Nucleus Model                        ... NOT USED
CABS basis                                  ... NOT available
Auxiliary Coulomb fitting basis             ... AVAILABLE
   # of basis functions in Aux-J            ...   2469
   # of shells in Aux-J                     ...    811
   Maximum angular momentum in Aux-J        ...      4
Auxiliary J/K fitting basis                 ... NOT available
Auxiliary Correlation fitting basis         ... NOT available
Auxiliary 'external' fitting basis          ... NOT available

Checking pre-screening integrals            ... done (  0.0 sec) Dimension = 606
Check shell pair data                       ... done (  0.0 sec)
Shell pair information
Shell pair cut-off parameter TPreSel        ...   2.5e-12
Total number of shell pairs                 ...    183921
Shell pairs after pre-screening             ...    103046
Total number of primitive shell pairs       ...    587019
Primitive shell pairs kept                  ...    198921
          la=0 lb=0:  26100 shell pairs
          la=1 lb=0:  30557 shell pairs
          la=1 lb=1:   8995 shell pairs
          la=2 lb=0:  14309 shell pairs
          la=2 lb=1:   8589 shell pairs
          la=2 lb=2:   2090 shell pairs
          la=3 lb=0:   6345 shell pairs
          la=3 lb=1:   3871 shell pairs
          la=3 lb=2:   1781 shell pairs
          la=3 lb=3:    409 shell pairs

Calculating one electron integrals          ... done (  0.1 sec)
done (  0.3 sec)
Calculating Nuclear repulsion               ... done (  0.0 sec) ENN=   7618.941769854769 Eh

Diagonalization of the overlap matrix:
Smallest eigenvalue                        ... 4.249e-06
Time for diagonalization                   ...    0.226 sec
Threshold for overlap eigenvalues          ... 1.000e-07
Number of eigenvalues below threshold      ... 0
Time for construction of square roots      ...    0.247 sec
Total time needed                          ...    0.504 sec

-------------------
DFT GRID GENERATION
-------------------

General Integration Accuracy     IntAcc      ... 4.959
Radial Grid Type                 RadialGrid  ... OptM3 with GC (2021)
Angular Grid (max. ang.)         AngularGrid ... 6 (Lebedev-590)
Angular grid pruning method      GridPruning ... 4 (adaptive)
Weight generation scheme         WeightScheme... mBecke (2022)
Basis function cutoff            BFCut       ... 1.0000e-11
Integration weight cutoff        WCut        ... 1.0000e-14
Partially contracted basis set               ... off
Rotationally invariant grid construction     ... off
Angular grids for H and He will be reduced by one unit
Core-polarized basis detected: some atoms will have their core
                               angular grid increased.

Total number of grid points                  ...   891097
Total number of batches                      ...    13961
Average number of points per batch           ...       63
Average number of grid points per atom       ...    11881

--------------------
COSX GRID GENERATION
--------------------

GRIDX 1
-------
General Integration Accuracy     IntAcc      ... 4.020
Radial Grid Type                 RadialGrid  ... OptM3 with GC (2021)
Angular Grid (max. ang.)         AngularGrid ... 2 (Lebedev-110)
Angular grid pruning method      GridPruning ... 4 (adaptive)
Weight generation scheme         WeightScheme... mBecke (2022)
Basis function cutoff            BFCut       ... 1.0000e-11
Integration weight cutoff        WCut        ... 1.0000e-14
Partially contracted basis set               ... on
Rotationally invariant grid construction     ... off
Angular grids for H and He will be reduced by one unit
Core-polarized basis detected: some atoms will have their core
                               angular grid increased.

Total number of grid points                  ...   100710
Total number of batches                      ...      827
Average number of points per batch           ...      121
Average number of grid points per atom       ...     1343
UseSFitting                                  ... on

GRIDX 2
-------
General Integration Accuracy     IntAcc      ... 4.338
Radial Grid Type                 RadialGrid  ... OptM3 with GC (2021)
Angular Grid (max. ang.)         AngularGrid ... 3 (Lebedev-194)
Angular grid pruning method      GridPruning ... 4 (adaptive)
Weight generation scheme         WeightScheme... mBecke (2022)
Basis function cutoff            BFCut       ... 1.0000e-11
Integration weight cutoff        WCut        ... 1.0000e-14
Partially contracted basis set               ... on
Rotationally invariant grid construction     ... off
Angular grids for H and He will be reduced by one unit
Core-polarized basis detected: some atoms will have their core
                               angular grid increased.

Total number of grid points                  ...   214714
Total number of batches                      ...     1713
Average number of points per batch           ...      125
Average number of grid points per atom       ...     2863
UseSFitting                                  ... on

GRIDX 3
-------
General Integration Accuracy     IntAcc      ... 4.871
Radial Grid Type                 RadialGrid  ... OptM3 with GC (2021)
Angular Grid (max. ang.)         AngularGrid ... 4 (Lebedev-302)
Angular grid pruning method      GridPruning ... 4 (adaptive)
Weight generation scheme         WeightScheme... mBecke (2022)
Basis function cutoff            BFCut       ... 1.0000e-11
Integration weight cutoff        WCut        ... 1.0000e-14
Partially contracted basis set               ... on
Rotationally invariant grid construction     ... off
Angular grids for H and He will be reduced by one unit
Core-polarized basis detected: some atoms will have their core
                               angular grid increased.

Total number of grid points                  ...   399645
Total number of batches                      ...     3156
Average number of points per batch           ...      126
Average number of grid points per atom       ...     5329
UseSFitting                                  ... on
Initializing property integral containers    ... done (  0.0 sec)

SHARK setup successfully completed in  15.7 seconds

Maximum memory used throughout the entire STARTUP-calculation: 311.3 MB


           ************************************************************
           *        Program running with 16 parallel MPI-processes    *
           *              working on a common directory               *
           ************************************************************
-------------------------------------------------------------------------------
                                 ORCA GUESS
                   Start orbitals & Density for SCF / CASSCF
-------------------------------------------------------------------------------

------------
SCF SETTINGS
------------
Hamiltonian:
 Density Functional     Method          .... DFT(GTOs)
 Exchange Functional    Exchange        .... PBE
   PBE kappa parameter   XKappa         ....  0.804000
   PBE mue parameter    XMuePBE         ....  0.219520
 Correlation Functional Correlation     .... PBE
   PBE beta parameter  CBetaPBE         ....  0.066725
 LDA part of GGA corr.  LDAOpt          .... PW91-LDA
 Gradients option       PostSCFGGA      .... off
 Hybrid DFT is turned on
   Fraction HF Exchange ScalHFX         ....  0.250000
   Scaling of DF-GGA-X  ScalDFX         ....  0.750000
   Scaling of DF-GGA-C  ScalDFC         ....  1.000000
   Scaling of DF-LDA-C  ScalLDAC        ....  1.000000
   Perturbative correction              ....  0.000000
   NL short-range parameter             ....  6.900000
 RI-approximation to the Coulomb term is turned on
   Number of AuxJ basis functions       .... 2469
   RIJ-COSX (HFX calculated with COS-X)).... on


General Settings:
 Integral files         IntName         .... KIKBOV-S6
 Hartree-Fock type      HFTyp           .... UHF
 Total Charge           Charge          ....    0
 Multiplicity           Mult            ....    6
 Number of Electrons    NEL             ....  367
 Basis Dimension        Dim             .... 1538
 Nuclear Repulsion      ENuc            ....   7618.9417698548 Eh

Convergence Acceleration:
 AO-DIIS                CNVDIIS         .... on
   Start iteration      DIISMaxIt       ....    12
   Startup error        DIISStart       ....  0.200000
   # of expansion vecs  DIISMaxEq       ....     5
   Bias factor          DIISBfac        ....   1.050
   Max. coefficient     DIISMaxC        ....  10.000
 MO-DIIS                CNVKDIIS        .... off
 Trust-Rad. Augm. Hess. CNVTRAH         .... auto
   Auto Start mean grad. ratio tolernc. ....  1.125000
   Auto Start start iteration           ....    50
   Auto Start num. interpolation iter.  ....    10
   Max. Number of Micro iterations      ....    24
   Max. Number of Macro iterations      .... Maxiter - #DIIS iter
   Number of Davidson start vectors     ....     2
   Converg. threshold    (grad. norm)   ....   1.000e-05
   Grad. Scal. Fac. for Micro threshold ....   0.100
   Minimum threshold for Micro iter.    ....   1.000e-02
   NR start threshold (gradient norm)   ....   1.000e-04
   Initial trust radius                 ....   0.400
   Minimum AH scaling param. (alpha)    ....   1.000
   Maximum AH scaling param. (alpha)    .... 1000.000
   Quad. conv. algorithm                .... NR
   White noise on init. David. guess    .... on
   Maximum white noise                  ....   0.010
   Pseudo random numbers                .... off
[...]
  (3) Hindered rotations indicated by low frequency modes are not
      treated as such but are treated as vibrations and this may
      cause some error
  (4) All equations used are the standard statistical mechanics
      equations for an ideal gas
  (5) All vibrations are strictly harmonic

freq.      12.20  E(vib)   ...       0.58 
freq.      13.19  E(vib)   ...       0.57 
freq.      20.14  E(vib)   ...       0.56 
freq.      20.94  E(vib)   ...       0.56 
freq.      22.15  E(vib)   ...       0.56 
freq.      26.62  E(vib)   ...       0.56 
freq.      28.84  E(vib)   ...       0.55 
freq.      32.40  E(vib)   ...       0.55 
freq.      33.70  E(vib)   ...       0.55 
freq.      60.36  E(vib)   ...       0.51 
freq.      62.84  E(vib)   ...       0.51 
freq.      73.36  E(vib)   ...       0.49 
freq.      80.59  E(vib)   ...       0.48 
freq.      80.68  E(vib)   ...       0.48 
freq.      86.20  E(vib)   ...       0.48 
freq.      90.68  E(vib)   ...       0.47 
freq.      91.04  E(vib)   ...       0.47 
freq.      94.42  E(vib)   ...       0.47 
freq.      98.46  E(vib)   ...       0.46 
freq.     100.65  E(vib)   ...       0.46 
freq.     105.28  E(vib)   ...       0.45 
freq.     110.47  E(vib)   ...       0.45 
freq.     114.37  E(vib)   ...       0.44 
freq.     121.65  E(vib)   ...       0.44 
freq.     122.33  E(vib)   ...       0.43 
freq.     123.41  E(vib)   ...       0.43 
freq.     144.43  E(vib)   ...       0.41 
freq.     147.93  E(vib)   ...       0.41 
freq.     148.89  E(vib)   ...       0.40 
freq.     174.29  E(vib)   ...       0.38 
freq.     175.96  E(vib)   ...       0.38 
freq.     178.21  E(vib)   ...       0.37 
freq.     187.68  E(vib)   ...       0.36 
freq.     190.85  E(vib)   ...       0.36 
freq.     191.83  E(vib)   ...       0.36 
freq.     194.20  E(vib)   ...       0.36 
freq.     199.58  E(vib)   ...       0.35 
freq.     202.73  E(vib)   ...       0.35 
freq.     207.69  E(vib)   ...       0.34 
freq.     213.39  E(vib)   ...       0.34 
freq.     216.47  E(vib)   ...       0.34 
freq.     233.42  E(vib)   ...       0.32 
freq.     240.25  E(vib)   ...       0.31 
freq.     243.07  E(vib)   ...       0.31 
freq.     243.90  E(vib)   ...       0.31 
freq.     260.72  E(vib)   ...       0.30 
freq.     261.79  E(vib)   ...       0.30 
freq.     270.03  E(vib)   ...       0.29 
freq.     273.22  E(vib)   ...       0.29 
freq.     276.92  E(vib)   ...       0.28 
freq.     282.61  E(vib)   ...       0.28 
freq.     286.59  E(vib)   ...       0.27 
freq.     287.96  E(vib)   ...       0.27 
freq.     316.34  E(vib)   ...       0.25 
freq.     323.22  E(vib)   ...       0.25 
freq.     328.02  E(vib)   ...       0.24 
freq.     332.63  E(vib)   ...       0.24 
freq.     359.98  E(vib)   ...       0.22 
freq.     367.55  E(vib)   ...       0.21 
freq.     368.36  E(vib)   ...       0.21 
freq.     377.38  E(vib)   ...       0.21 
freq.     386.17  E(vib)   ...       0.20 
freq.     388.79  E(vib)   ...       0.20 
freq.     392.34  E(vib)   ...       0.20 
freq.     393.46  E(vib)   ...       0.20 
freq.     454.64  E(vib)   ...       0.16 
freq.     455.01  E(vib)   ...       0.16 
freq.     463.33  E(vib)   ...       0.16 
freq.     492.33  E(vib)   ...       0.14 
freq.     493.70  E(vib)   ...       0.14 
freq.     495.32  E(vib)   ...       0.14 
freq.     526.06  E(vib)   ...       0.13 
freq.     532.72  E(vib)   ...       0.13 
freq.     541.17  E(vib)   ...       0.12 
freq.     592.61  E(vib)   ...       0.10 
freq.     600.24  E(vib)   ...       0.10 
freq.     606.80  E(vib)   ...       0.10 
freq.     632.89  E(vib)   ...       0.09 
freq.     633.55  E(vib)   ...       0.09 
freq.     635.18  E(vib)   ...       0.09 
freq.     645.46  E(vib)   ...       0.09 
freq.     659.15  E(vib)   ...       0.08 
freq.     659.32  E(vib)   ...       0.08 
freq.     660.10  E(vib)   ...       0.08 
freq.     676.36  E(vib)   ...       0.08 
freq.     689.31  E(vib)   ...       0.07 
freq.     692.40  E(vib)   ...       0.07 
freq.     704.35  E(vib)   ...       0.07 
freq.     712.80  E(vib)   ...       0.07 
freq.     759.10  E(vib)   ...       0.06 
freq.     760.03  E(vib)   ...       0.06 
freq.     760.65  E(vib)   ...       0.06 
freq.     792.72  E(vib)   ...       0.05 
freq.     793.06  E(vib)   ...       0.05 
freq.     799.07  E(vib)   ...       0.05 
freq.     834.26  E(vib)   ...       0.04 
freq.     839.05  E(vib)   ...       0.04 
freq.     839.26  E(vib)   ...       0.04 
freq.     967.92  E(vib)   ...       0.03 
freq.     969.45  E(vib)   ...       0.03 
freq.     969.86  E(vib)   ...       0.03 
freq.     998.92  E(vib)   ...       0.02 
freq.     999.64  E(vib)   ...       0.02 
freq.     999.76  E(vib)   ...       0.02 
freq.    1073.87  E(vib)   ...       0.02 
freq.    1082.30  E(vib)   ...       0.02 
freq.    1082.74  E(vib)   ...       0.02 
freq.    1101.58  E(vib)   ...       0.02 
freq.    1101.83  E(vib)   ...       0.02 
freq.    1101.95  E(vib)   ...       0.02 
freq.    1124.15  E(vib)   ...       0.01 
freq.    1136.04  E(vib)   ...       0.01 
freq.    1137.34  E(vib)   ...       0.01 
freq.    1140.48  E(vib)   ...       0.01 
freq.    1170.87  E(vib)   ...       0.01 
freq.    1170.96  E(vib)   ...       0.01 
freq.    1171.74  E(vib)   ...       0.01 
freq.    1172.75  E(vib)   ...       0.01 
freq.    1172.80  E(vib)   ...       0.01 
freq.    1173.10  E(vib)   ...       0.01 
freq.    1174.45  E(vib)   ...       0.01 
freq.    1174.94  E(vib)   ...       0.01 
freq.    1175.07  E(vib)   ...       0.01 
freq.    1187.91  E(vib)   ...       0.01 
freq.    1188.47  E(vib)   ...       0.01 
freq.    1188.98  E(vib)   ...       0.01 
freq.    1197.42  E(vib)   ...       0.01 
freq.    1199.11  E(vib)   ...       0.01 
freq.    1199.23  E(vib)   ...       0.01 
freq.    1209.50  E(vib)   ...       0.01 
freq.    1209.57  E(vib)   ...       0.01 
freq.    1210.09  E(vib)   ...       0.01 
freq.    1210.85  E(vib)   ...       0.01 
freq.    1212.09  E(vib)   ...       0.01 
freq.    1212.28  E(vib)   ...       0.01 
freq.    1250.91  E(vib)   ...       0.01 
freq.    1251.08  E(vib)   ...       0.01 
freq.    1251.47  E(vib)   ...       0.01 
freq.    1263.70  E(vib)   ...       0.01 
freq.    1264.47  E(vib)   ...       0.01 
freq.    1265.61  E(vib)   ...       0.01 
freq.    1363.35  E(vib)   ...       0.01 
freq.    1365.81  E(vib)   ...       0.01 
freq.    1367.25  E(vib)   ...       0.01 
freq.    1393.08  E(vib)   ...       0.00 
freq.    1397.74  E(vib)   ...       0.00 
freq.    1403.59  E(vib)   ...       0.00 
freq.    1447.78  E(vib)   ...       0.00 
freq.    1449.36  E(vib)   ...       0.00 
freq.    1450.05  E(vib)   ...       0.00 
freq.    1464.33  E(vib)   ...       0.00 
freq.    1464.49  E(vib)   ...       0.00 
freq.    1465.71  E(vib)   ...       0.00 
freq.    1486.43  E(vib)   ...       0.00 
freq.    1486.59  E(vib)   ...       0.00 
freq.    1486.68  E(vib)   ...       0.00 
freq.    1487.40  E(vib)   ...       0.00 
freq.    1488.36  E(vib)   ...       0.00 
freq.    1488.54  E(vib)   ...       0.00 
freq.    1488.65  E(vib)   ...       0.00 
freq.    1488.90  E(vib)   ...       0.00 
freq.    1489.43  E(vib)   ...       0.00 
freq.    1490.78  E(vib)   ...       0.00 
freq.    1490.98  E(vib)   ...       0.00 
freq.    1492.03  E(vib)   ...       0.00 
freq.    1492.89  E(vib)   ...       0.00 
freq.    1493.10  E(vib)   ...       0.00 
freq.    1494.02  E(vib)   ...       0.00 
freq.    1496.95  E(vib)   ...       0.00 
freq.    1497.44  E(vib)   ...       0.00 
freq.    1497.98  E(vib)   ...       0.00 
freq.    1498.31  E(vib)   ...       0.00 
freq.    1498.85  E(vib)   ...       0.00 
freq.    1501.17  E(vib)   ...       0.00 
freq.    1509.45  E(vib)   ...       0.00 
freq.    1509.60  E(vib)   ...       0.00 
freq.    1512.30  E(vib)   ...       0.00 
freq.    1524.54  E(vib)   ...       0.00 
freq.    1526.34  E(vib)   ...       0.00 
freq.    1527.25  E(vib)   ...       0.00 
freq.    1637.19  E(vib)   ...       0.00 
freq.    1637.42  E(vib)   ...       0.00 
freq.    1639.29  E(vib)   ...       0.00 
freq.    1660.25  E(vib)   ...       0.00 
freq.    1662.70  E(vib)   ...       0.00 
freq.    1665.31  E(vib)   ...       0.00 
freq.    3023.13  E(vib)   ...       0.00 
freq.    3023.41  E(vib)   ...       0.00 
freq.    3024.44  E(vib)   ...       0.00 
freq.    3024.71  E(vib)   ...       0.00 
freq.    3026.84  E(vib)   ...       0.00 
freq.    3027.64  E(vib)   ...       0.00 
freq.    3028.81  E(vib)   ...       0.00 
freq.    3031.77  E(vib)   ...       0.00 
freq.    3032.28  E(vib)   ...       0.00 
freq.    3089.58  E(vib)   ...       0.00 
freq.    3089.93  E(vib)   ...       0.00 
freq.    3090.04  E(vib)   ...       0.00 
freq.    3090.46  E(vib)   ...       0.00 
freq.    3094.13  E(vib)   ...       0.00 
freq.    3095.27  E(vib)   ...       0.00 
freq.    3108.26  E(vib)   ...       0.00 
freq.    3110.04  E(vib)   ...       0.00 
freq.    3110.42  E(vib)   ...       0.00 
freq.    3154.83  E(vib)   ...       0.00 
freq.    3155.13  E(vib)   ...       0.00 
freq.    3156.08  E(vib)   ...       0.00 
freq.    3157.70  E(vib)   ...       0.00 
freq.    3157.76  E(vib)   ...       0.00 
freq.    3158.62  E(vib)   ...       0.00 
freq.    3169.34  E(vib)   ...       0.00 
freq.    3169.67  E(vib)   ...       0.00 
freq.    3169.93  E(vib)   ...       0.00 
freq.    3248.09  E(vib)   ...       0.00 
freq.    3248.21  E(vib)   ...       0.00 
freq.    3248.38  E(vib)   ...       0.00 
freq.    3264.86  E(vib)   ...       0.00 
freq.    3265.17  E(vib)   ...       0.00 
freq.    3265.60  E(vib)   ...       0.00 

------------
INNER ENERGY
------------

The inner energy is: U= E(el) + E(ZPE) + E(vib) + E(rot) + E(trans)
    E(el)   - is the total energy from the electronic structure calculation
              = E(kin-el) + E(nuc-el) + E(el-el) + E(nuc-nuc)
    E(ZPE)  - the the zero temperature vibrational energy from the frequency calculation
    E(vib)  - the the finite temperature correction to E(ZPE) due to population
              of excited vibrational states
    E(rot)  - is the rotational thermal energy
    E(trans)- is the translational thermal energy

Summary of contributions to the inner energy U:
Electronic energy                ...  -4784.68920830 Eh
Zero point energy                ...      0.57759595 Eh     362.45 kcal/mol
Thermal vibrational correction   ...      0.04524024 Eh      28.39 kcal/mol
Thermal rotational correction    ...      0.00141627 Eh       0.89 kcal/mol
Thermal translational correction ...      0.00141627 Eh       0.89 kcal/mol
-----------------------------------------------------------------------
Total thermal energy                  -4784.06353957 Eh


Summary of corrections to the electronic energy:
(perhaps to be used in another calculation)
Total thermal correction                  0.04807279 Eh      30.17 kcal/mol
Non-thermal (ZPE) correction              0.57759595 Eh     362.45 kcal/mol
-----------------------------------------------------------------------
Total correction                          0.62566873 Eh     392.61 kcal/mol


--------
ENTHALPY
--------

The enthalpy is H = U + kB*T
                kB is Boltzmann's constant
Total thermal energy              ...  -4784.06353957 Eh 
Thermal Enthalpy correction       ...      0.00094421 Eh       0.59 kcal/mol
-----------------------------------------------------------------------
Total Enthalpy                    ...  -4784.06259536 Eh


Note: Only C1 symmetry has been detected, increase convergence thresholds 
      if your molecule has a higher symmetry. Symmetry factor of 1.0 is   
      used for the rotational entropy correction. 
 

Note: Rotational entropy computed according to Herzberg 
Infrared and Raman Spectra, Chapter V,1, Van Nostrand Reinhold, 1945 
Point Group:  C1, Symmetry Number:   1  
Rotational constants in cm-1:     0.002184     0.002112     0.002017 

Vibrational entropy computed according to the QRRHO of S. Grimme
Chem.Eur.J. 2012 18 9955 using a reference frequency of 100.0 cm-1


-------
ENTROPY
-------

The entropy contributions are T*S = T*(S(el)+S(vib)+S(rot)+S(trans))
     S(el)   - electronic entropy
     S(vib)  - vibrational entropy
     S(rot)  - rotational entropy
     S(trans)- translational entropy
The entropies will be listed as multiplied by the temperature to get
units of energy

Electronic entropy                ...      0.00169175 Eh      1.06 kcal/mol
Vibrational entropy               ...      0.08431017 Eh     52.91 kcal/mol
Rotational entropy                ...      0.01824118 Eh     11.45 kcal/mol
Translational entropy             ...      0.02164873 Eh     13.58 kcal/mol
-----------------------------------------------------------------------
Final entropy term                ...      0.12589183 Eh     79.00 kcal/mol

In case the symmetry of your molecule has not been determined correctly
or in case you have a reason to use a different symmetry number we print 
out the resulting rotational entropy values for sn=1,12:

 non-linear molecules -----------------------------------
|  sn= 1 | S(rot)=       0.01824118 Eh     11.45 kcal/mol|
|  sn= 2 | S(rot)=       0.01758672 Eh     11.04 kcal/mol|
|  sn= 3 | S(rot)=       0.01720389 Eh     10.80 kcal/mol|
|  sn= 4 | S(rot)=       0.01693227 Eh     10.63 kcal/mol|
|  sn= 5 | S(rot)=       0.01672158 Eh     10.49 kcal/mol|
|  sn= 6 | S(rot)=       0.01654943 Eh     10.38 kcal/mol|
|  sn= 7 | S(rot)=       0.01640389 Eh     10.29 kcal/mol|
|  sn= 8 | S(rot)=       0.01627781 Eh     10.21 kcal/mol|
|  sn= 9 | S(rot)=       0.01616660 Eh     10.14 kcal/mol|
|  sn=10 | S(rot)=       0.01606712 Eh     10.08 kcal/mol|
|  sn=11 | S(rot)=       0.01597713 Eh     10.03 kcal/mol|
|  sn=12 | S(rot)=       0.01589498 Eh      9.97 kcal/mol|
 linear molecules ---------------------------------------
|  Dinfh | S(rot)=       0.01118550 Eh      7.02 kcal/mol|
|  Cinfv | S(rot)=       0.01183995 Eh      7.43 kcal/mol|
 --------------------------------------------------------


-------------------
GIBBS FREE ENERGY
-------------------

The Gibbs free energy is G = H - T*S

Total enthalpy                    ...  -4784.06259536 Eh 
Total entropy correction          ...     -0.12589183 Eh    -79.00 kcal/mol
-----------------------------------------------------------------------
Final Gibbs free energy         ...  -4784.18848719 Eh

For completeness - the Gibbs free energy minus the electronic energy
G-E(el)                           ...      0.50072112 Eh    314.21 kcal/mol


Maximum memory used throughout the entire PROP-calculation: 1775.9 MB

--------------------------------
SUGGESTED CITATIONS FOR THIS RUN
--------------------------------

Below you find a list of papers that are relevant to this ORCA run
We neither can nor want to force you to cite these papers, but we appreciate if you do
You receive ORCA, which is the product of decades of hard work by many enthusiastic individuals, for free
The only thing we kindly ask in return is that you cite our papers,
We deeply appreciate it, if you show your appreciation for ORCA by not just citing the generic ORCA reference.

Please note that relegating all ORCA citations to the supporting information does *not* help us.
SI sections are not indexed - citations you put there will not count into any citation statistics
But we need these citations in order to attract the funding resources that allow us to do what we are doing

Therefore, if you are a happy ORCA user, please consider citing a few of the papers listed below in the main body of your paper

In addition to the list printed below, the program has created the file KIKBOV-S6.bibtex that contains the list in bibtex format
You can import this file easily into all common literature databanks and citation aid programs


List of essential papers. We consider these as the minimum necessary citations

  1. Neese,F.
     Software update: the ORCA program system, version 5.0
     WIRES Comput. Molec. Sci., 2022 12(1)e1606
     doi.org/10.1002/wcms.1606

List of papers to cite with high priority. The work reported in these papers was absolutely
necessary for this run to complete.
Our perspective: the developers of density functionals and basis sets usually get cited in chemistry papers
Good! But without the algorithms to do something with them, the functionals or basis sets would not do anything.
Hence, in our opinion, the algorithm design and method developments papers are equally worthy of getting cited

  1. Neese,F.
     An improvement of the resolution of the identity approximation for the formation of the Coulomb matrix
     J. Comp. Chem., 2003 24(14)1740-1747
     doi.org/10.1002/jcc.10318
  2. Neese,F.; Wennmohs,F.; Hansen,A.; Becker,U.
     Efficient, approximate and parallel Hartree-Fock and hybrid DFT calculations. A 'chain-of-spheres' algorithm for the Hartree-Fock exchange
     Chem. Phys., 2009 356(1-3)98-109
     doi.org/10.1016/j.chemphys.2008.10.036
  3. Bykov,D.; Petrenko,T.; Izsak,R.; Kossmann,S.; Becker,U.; Valeev,E.; Neese,F.
     Efficient implementation of the analytic second derivatives of Hartree-Fock and hybrid DFT energies: a detailed analysis of different approximations
     Molec. Phys., 2015 113 1961-1977
     doi.org/10.1080/00268976.2015.1025114
  4. Helmich-Paris,B.; de Souza,B.; Neese,F.; Izsák,R.
     An improved chain of spheres for exchange algorithm
     J. Chem. Phys., 2021 155 104109
     doi.org/doi: 10.1063/5.0058766.
  5. Neese,F.
     The SHARK Integral Generation and Digestion System
     J. Comp. Chem., 2022  1-16
     doi.org/10.1002/jcc.26942

List of suggested additional citations. These are papers that are important in the 'surrounding' of 
of this run, or papers that preceded the highly important papers. If you like your results we are grateful for a citation.

  1. Izsak,R.; Neese,F.
     An overlap fitted chain of spheres exchange method
     J. Chem. Phys., 2011 135 144105
     doi.org/10.1063/1.3646921
  2. Izsak,R.; Hansen,A.; Neese,F.
     The resolution of identity and chain of spheres approximations for the LPNO-CCSD singles Fock term
     Molec. Phys., 2012 110 2413-2417
     doi.org/10.1080/00268976.2012.687466
  3. Neese,F.
     The ORCA program system
     WIRES Comput. Molec. Sci., 2012 2(1)73-78
     doi.org/10.1002/wcms.81
  4. Izsak,R.; Neese,F.; Klopper,W.
     Robust fitting techniques in the chain of spheres approximation to the Fock exchange: The role of the complementary space
     J. Chem. Phys., 2013 139 
     doi.org/10.1063/1.4819264
  5. Neese,F.
     Software update: the ORCA program system, version 4.0
     WIRES Comput. Molec. Sci., 2018 8(1)1-6
     doi.org/10.1002/wcms.1327
  6. Neese,F.; Wennmohs,F.; Becker,U.; Riplinger,C.
     The ORCA quantum chemistry program package
     J. Chem. Phys., 2020 152 Art. No. L224108
     doi.org/10.1063/5.0004608

List of optional additional citations

  1. Neese,F.
     Approximate second-order SCF convergence for spin unrestricted wavefunctions
     Chem. Phys. Lett., 2000 325(1-3)93-98
     doi.org/10.1016/s0009-2614(00)00662-x

Timings for individual modules:

Sum of individual times          ...    44869.215 sec (= 747.820 min)
Startup calculation              ...      484.980 sec (=   8.083 min)   1.1 %
SCF iterations                   ...    11636.328 sec (= 193.939 min)  25.9 %
Property integrals               ...    10377.884 sec (= 172.965 min)  23.1 %
SCF Response                     ...    16809.154 sec (= 280.153 min)  37.5 %
Property calculations            ...     2887.704 sec (=  48.128 min)   6.4 %
SCF Gradient evaluation          ...     2671.737 sec (=  44.529 min)   6.0 %
Geometry relaxation              ...        1.428 sec (=   0.024 min)   0.0 %
                             ****ORCA TERMINATED NORMALLY****
TOTAL RUN TIME: 0 days 12 hours 28 minutes 53 seconds 384 msec
