
                                 *****************
                                 * O   R   C   A *
                                 *****************

                                            #,                                       
                                            ###                                      
                                            ####                                     
                                            #####                                    
                                            ######                                   
                                           ########,                                 
                                     ,,################,,,,,                         
                               ,,#################################,,                 
                          ,,##########################################,,             
                       ,#########################################, ''#####,          
                    ,#############################################,,   '####,        
                  ,##################################################,,,,####,       
                ,###########''''           ''''###############################       
              ,#####''   ,,,,##########,,,,          '''####'''          '####       
            ,##' ,,,,###########################,,,                        '##       
           ' ,,###''''                  '''############,,,                           
         ,,##''                                '''############,,,,        ,,,,,,###''
      ,#''                                            '''#######################'''  
     '                                                          ''''####''''         
             ,#######,   #######,   ,#######,      ##                                
            ,#'     '#,  ##    ##  ,#'     '#,    #''#        ,####,   ,####,        
            ##       ##  ##   ,#'  ##            #'  '#       #'       #'  '#        
            ##       ##  #######   ##           ,######,      #####,   #    #        
            '#,     ,#'  ##    ##  '#,     ,#' ,#      #,     #,   #   #,  ,#        
             '#######'   ##     ##  '#######'  #'      '#     '####' # '####'        



                #########################################################
                #                        -***-                          #
                #          Department of theory and spectroscopy        #
                #                                                       #
                #                      Frank Neese                      #
                #                                                       #
                #     Directorship, Architecture, Infrastructure        #
                #                    SHARK, DRIVERS                     #
                #        Core code/Algorithms in most modules           #
                #                                                       #
                #        Max Planck Institute fuer Kohlenforschung      #
                #                Kaiser Wilhelm Platz 1                 #
                #                 D-45470 Muelheim/Ruhr                 #
                #                      Germany                          #
                #                                                       #
                #                  All rights reserved                  #
                #                        -***-                          #
                #########################################################


                         Program Version 6.0.1  -  RELEASE   -


 With contributions from (in alphabetic order):
[Max-Planck-Institut fuer Kohlenforschung]                               
  Daniel Aravena         : Magnetic Suceptibility                        
  Michael Atanasov       : Ab Initio Ligand Field Theory (pilot matlab implementation)
  Alexander A. Auer      : GIAO ZORA, VPT2 properties, NMR spectrum      
  Ute Becker             : All parallelization in ORCA, NUMFREQ, NUMCALC 
  Giovanni Bistoni       : ED, misc. LED, open-shell LED, HFLD           
  Martin Brehm           : Molecular dynamics                            
  Dmytro Bykov           : pre 5.0 version of the SCF Hessian            
  Marcos Casanova-Páez   : Triplet and SCS-CIS(D). UHF-(DLPNO)-IP/EA/STEOM-CCSD. UHF-CVS-IP/STEOM-CCSD   
  Vijay G. Chilkuri      : MRCI spin determinant printing, contributions to CSF-ICE 
  Pauline Colinet        : FMM embedding                                 
  Dipayan Datta          : RHF DLPNO-CCSD density                        
  Achintya Kumar Dutta   : EOM-CC, STEOM-CC                              
  Nicolas Foglia         : Exact transition moments, OPA infrastructure, MCD improvements    
  Dmitry Ganyushin       : Spin-Orbit,Spin-Spin,Magnetic field MRCI      
  Miquel Garcia-Rates    : C-PCM and meta-GGA Hessian, CCSD/C-PCM, Gaussian charge scheme 
  Tiago L. C. Gouveia    : GS-ROHF, GS-ROCIS                             
  Yang Guo               : DLPNO-NEVPT2, F12-NEVPT2, CIM, IAO-localization        
  Andreas Hansen         : Spin unrestricted coupled pair/coupled cluster methods 
  Ingolf Harden          : AUTO-CI MPn and infrastructure                
  Benjamin Helmich-Paris : MC-RPA, TRAH-(SCF,CASSCF), AVAS, COSX integrals, SCF dyn. polar. 
  Lee Huntington         : MR-EOM, pCC                                   
  Robert Izsak           : Overlap fitted RIJCOSX, COSX-SCS-MP3, EOM     
  Riya Kayal             : Wick's Theorem for AUTO-CI, AUTO-CI UHF-CCSDT 
  Emily Kempfer          : AUTO-CI, RHF CISDT and CCSDT                  
  Christian Kollmar      : KDIIS, OOCD, Brueckner-CCSD(T), CCSD density, CASPT2, CASPT2-K, improved NEVPT2 
  Axel Koslowski         : Symmetry handling                             
  Simone Kossmann        : meta-GGA functionals, TD-DFT gradient, OOMP2, (MP2 Hessian; deprecated post 5.0) 
  Lucas Lang             : DCDCAS                                        
  Marvin Lechner         : AUTO-CI (C++ implementation), FIC-MRCC        
  Spencer Leger          : CASSCF response                               
  Dagmar Lenk            : GEPOL surface, SMD, ORCA-2-JSON               
  Dimitrios Liakos       : Extrapolation schemes; Compound Job, initial MDCI parallelization 
  Dimitrios Manganas     : Further ROCIS development; embedding schemes. LFT, Crystal Embedding 
  Dimitrios Pantazis     : SARC Basis sets                               
  Anastasios Papadopoulos: AUTO-CI, single reference methods and gradients 
  Taras Petrenko         : pre 6.0 DFT Hessian and TD-DFT gradient, (ASA, deprecated), ECA, 1-Electron XAS/XES, NRVS 
  Peter Pinski           : DLPNO-MP2, DLPNO-MP2 Gradient                 
  Christoph Reimann      : Effective Core Potentials                     
  Marius Retegan         : Local ZFS, SOC                                
  Christoph Riplinger    : Optimizer, TS searches, QM/MM, DLPNO-CCSD(T), (RO)-DLPNO pert. Triples 
  Michael Roemelt        : Original ROCIS implementation                 
  Masaaki Saitow         : Open-shell DLPNO-CCSD energy and density      
  Barbara Sandhoefer     : DKH picture change effects                    
  Kantharuban Sivalingam : CASSCF convergence/infrastructure, NEVPT2 and variants, FIC-MRCI 
  Bernardo de Souza      : ESD, SOC TD-DFT                               
  Georgi L. Stoychev     : AutoAux, RI-MP2 NMR, DLPNO-MP2 response, X2C  
  Van Anh Tran           : RI-MP2 g-tensors                              
  Willem Van den Heuvel  : Paramagnetic NMR                              
  Zikuan Wang            : NOTCH, Electric field optimization            
  Frank Wennmohs         : Technical directorship and infrastructure     
  Hang Xu                : AUTO-CI-Response properties                   
                                                                         
[FACCTs GmbH]                                                            
  Markus Bursch, Miquel Garcia-Rates, Christoph Riplinger, Bernardo de Souza, Georgi L. Stoychev 
                                                                 
  APM, Basis sets (HGBS, AHGBS, def-TZVP (Ac-Lr), def2-XVPD (La-Lu)), CI-OPT, improved COSX, DLPNO-Multilevel,           
  DOCKER, DRACO, updates on ESD, GOAT, IRC, LR-CPCM, MBIS, meta-GGA TD-DFT gradient, ML-optimized integration grids, 
  MM, NACMEs, nearIR, NEB, NEB-TS, NL-DFT gradient (VV10), 2- and 3-layer-ONIOM, interface openCOSMO-RS, QMMM,   
  Crystal-QMMM, SF, symmetry and pop. for TD-DFT, r2SCAN hybrids, SOLVATOR                                   
                                                                         
[Other institutions]                                                     
  V. Asgeirsson          : NEB                                           
  Christoph Bannwarth    : sTDA-DFT, sTD-DFT, PBEh-3c, B97-3c, D3        
  Sebastian Ehlert       : rSCAN, r2SCAN, r2SCAN-3c, D4, dhf basis sets  
  Marvin Friede          : D4 for Fr, Ra, Ac-Lr                          
  Lars Goerigk           : TD-DFT with DH, B97 family of functionals     
  Stefan Grimme          : VdW corrections, initial TS optimization, DFT functionals, gCP, sTDA/sTD-DF 
  Waldemar Hujo          : DFT-NL                                        
  H. Jonsson             : NEB                                           
  Holger Kruse           : gCP                                           
  Marcel Mueller         : wB97X-3c, vDZP basis set                      
  Hagen Neugebauer       : wr2SCAN                                       
  Tobias Risthaus        : range-separated hybrid DFT                    
  Lukas Wittmann         : regularized MP2, r2SCAN double-hybrids, wr2SCAN        
                                                                         
We gratefully acknowledge several colleagues who have allowed us to      
interface, adapt or use parts of their codes:                            
  Ed Valeev, F. Pavosevic, A. Kumar             : LibInt (2-el integral package), F12 methods 
  Garnet Chan, S. Sharma, J. Yang, R. Olivares  : DMRG                   
  Ulf Ekstrom                                   : XCFun DFT Library      
  Mihaly Kallay                                 : mrcc  (arbitrary order and MRCC methods)
  Frank Weinhold                                : gennbo (NPA and NBO analysis)           
  Simon Mueller                                 : openCOSMO-RS                            
  Christopher J. Cramer and Donald G. Truhlar   : smd solvation model                     
  S Lehtola, MJT Oliveira, MAL Marques          : LibXC Library                           
  Liviu Ungur et al                             : ANISO software                          


 Your calculation uses the libint2 library for the computation of 2-el integrals
 For citations please refer to: http://libint.valeyev.net

 Your ORCA version has been built with support for libXC version: 6.2.2
 For citations please refer to: https://libxc.gitlab.io

 This ORCA versions uses:
   CBLAS   interface :  Fast vector & matrix operations
   LAPACKE interface :  Fast linear algebra routines
   SCALAPACK package :  Parallel linear algebra routines
   Shared memory     :  Shared parallel matrices
   BLAS/LAPACK       :  OpenBLAS 0.3.27  USE64BITINT DYNAMIC_ARCH NO_AFFINITY Cooperlake SINGLE_THREADED
        Core in use  :  Cooperlake
   Copyright (c) 2011-2014, The OpenBLAS Project


NOTE: MaxCore=3600 MB was set to SCF,MP2,MDCI,CIPSI,MRCI and CIS
      => If you want to overwrite this, your respective input block should be placed after the MaxCore statement
Warning: RI is on but no J-basis has been assigned. Assigning Def2/J (nothing to worry about!)
================================================================================

----- Orbital basis set information -----
Your calculation utilizes the basis: def2-TZVP
   F. Weigend and R. Ahlrichs, Phys. Chem. Chem. Phys. 7, 3297 (2005).

----- AuxJ basis set information -----
Your calculation utilizes the auxiliary basis: def2/J
   F. Weigend, Phys. Chem. Chem. Phys. 8, 1057 (2006).

================================================================================
                                        WARNINGS
                       Please study these warnings very carefully!
================================================================================


WARNING: your system is open-shell and RHF/RKS was chosen
  ===> : WILL SWITCH to UHF/UKS


WARNING: Geometry Optimization
  ===> : Switching off AutoStart
         For restart on a previous wavefunction, please use MOREAD

================================================================================
                                       INPUT FILE
================================================================================
NAME = LUJNOV-S6.inp
|  1> ! PBE0 def2-TZVP  Opt Freq DEFGRID3
|  2> 
|  3> %maxcore 3600
|  4> 
|  5> %pal
|  6>     nprocs 16
|  7> end
|  8> 
|  9> *xyz 0 6
| 10> Fe 10.916 1.7922 6.181
| 11> Cl 12.1301 3.619 5.8919
| 12> S 6.138 1.7922 7.452
| 13> N 9.0064 1.7922 6.6857
| 14> N 7.4469 1.7922 8.5162
| 15> N 6.741 1.7922 5.8784
| 16> N 10.9859 1.7922 8.3045
| 17> N 9.9177 1.7922 4.2921
| 18> C 8.6274 1.7922 8.0207
| 19> C 8.0154 1.7922 5.7188
| 20> C 9.7941 1.7922 8.9309
| 21> C 9.6973 1.7922 10.3165
| 22> H 8.8491 1.7922 10.7436
| 23> C 10.8631 1.7922 11.0607
| 24> H 10.8232 1.7922 12.0094
| 25> C 12.0875 1.7922 10.4168
| 26> H 12.8963 1.7922 10.9159
| 27> C 12.1134 1.7922 9.028
| 28> H 12.9513 1.7922 8.5798
| 29> C 8.5705 1.7922 4.3491
| 30> C 7.7909 1.7922 3.2037
| 31> H 6.8434 1.7922 3.2659
| 32> C 8.412 1.7922 1.9694
| 33> H 7.8964 1.7922 1.1717
| 34> C 9.793 1.7922 1.9106
| 35> H 10.239 1.7922 1.0717
| 36> C 10.5153 1.7922 3.0894
| 37> H 11.4639 1.7922 3.0472
| 38> Cl 12.1301 -0.0346 5.8919
| 39> *
| 40> 
| 41>                          ****END OF INPUT****
================================================================================

                       *****************************
                       * Geometry Optimization Run *
                       *****************************

Geometry optimization settings:
Update method            Update   .... BFGS
Choice of coordinates    CoordSys .... (2022) Redundant Internals
Initial Hessian          InHess   .... Almloef's Model
Max. no of cycles        MaxIter  .... 87

Convergence Tolerances:
Energy Change            TolE     ....  5.0000e-06 Eh
Max. Gradient            TolMAXG  ....  3.0000e-04 Eh/bohr
RMS Gradient             TolRMSG  ....  1.0000e-04 Eh/bohr
Max. Displacement        TolMAXD  ....  4.0000e-03 bohr
RMS Displacement         TolRMSD  ....  2.0000e-03 bohr
Strict Convergence                .... False

------------------------------------------------------------------------------
                        ORCA OPTIMIZATION COORDINATE SETUP
------------------------------------------------------------------------------

The optimization will be done in redundant internal coordinates (2022)
Making redundant internal coordinates   ...  (2022 redundants) done
Evaluating the initial hessian          ...  (Almloef) done
Evaluating the coordinates              ...  done
Calculating the B-matrix                .... done
Calculating the G-matrix                .... done
Diagonalizing the G-matrix              .... done
Small eigenvalue found = 2.589e-02
The first mode is                       ....   98
The number of degrees of freedom        ....   81

    -----------------------------------------------------------------
                    Redundant Internal Coordinates


    -----------------------------------------------------------------
         Definition                    Initial Value    Approx d2E/dq
    -----------------------------------------------------------------
      1. B(Cl  1,Fe  0)                  2.2124         0.691410   
      2. B(N   3,Fe  0)                  1.9752         0.659781   
      3. B(N   4,S   2)                  1.6869         0.506882   
      4. B(N   5,S   2)                  1.6852         0.510158   
      5. B(N   6,Fe  0)                  2.1247         0.380989   
      6. B(N   7,Fe  0)                  2.1365         0.364787   
      7. B(C   8,N   3)                  1.3878         0.564230   
      8. B(C   8,N   4)                  1.2803         0.837408   
      9. B(C   9,N   5)                  1.2844         0.824946   
     10. B(C   9,N   3)                  1.3845         0.570915   
     11. B(C  10,C   8)                  1.4797         0.449316   
     12. B(C  10,N   6)                  1.3464         0.656831   
     13. B(C  11,C  10)                  1.3890         0.627149   
     14. B(H  12,C  11)                  0.9497         0.603009   
     15. B(C  13,C  11)                  1.3831         0.640872   
     16. B(H  14,C  13)                  0.9495         0.603282   
     17. B(C  15,C  13)                  1.3834         0.640158   
     18. B(H  16,C  15)                  0.9504         0.601378   
     19. B(C  17,C  15)                  1.3890         0.627000   
     20. B(C  17,N   6)                  1.3397         0.673253   
     21. B(H  18,C  17)                  0.9502         0.601725   
     22. B(C  19,C   9)                  1.4779         0.452362   
     23. B(C  19,N   7)                  1.3484         0.651984   
     24. B(C  20,C  19)                  1.3855         0.635121   
     25. B(H  21,C  20)                  0.9495         0.603280   
     26. B(C  22,C  20)                  1.3818         0.643998   
     27. B(H  23,C  22)                  0.9498         0.602646   
     28. B(C  24,C  22)                  1.3823         0.642838   
     29. B(H  25,C  24)                  0.9501         0.602063   
     30. B(C  26,C  24)                  1.3825         0.642267   
     31. B(C  26,N   7)                  1.3430         0.665093   
     32. B(H  27,C  26)                  0.9495         0.603283   
     33. B(Cl 28,Fe  0)                  2.2124         0.691410   
     34. A(Cl  1,Fe  0,Cl 28)          111.3193         0.613409   
     35. A(Cl  1,Fe  0,N   3)          124.3285         0.584353   
     36. A(N   3,Fe  0,N   6)           77.0808         0.502218   
     37. A(N   6,Fe  0,N   7)          154.0285         0.450351   
     38. A(N   7,Fe  0,Cl 28)           98.0993         0.522176   
     39. A(N   3,Fe  0,Cl 28)          124.3285         0.584353   
     40. A(Cl  1,Fe  0,N   7)           98.0993         0.522176   
     41. A(N   3,Fe  0,N   7)           76.9477         0.498174   
     42. A(N   6,Fe  0,Cl 28)           96.4621         0.526457   
     43. A(Cl  1,Fe  0,N   6)           96.4621         0.526457   
     44. A(N   4,S   2,N   5)          108.1461         0.445261   
     45. A(Fe  0,N   3,C   9)          120.9007         0.480142   
     46. A(C   8,N   3,C   9)          118.4458         0.415101   
     47. A(Fe  0,N   3,C   8)          120.6535         0.479101   
     48. A(S   2,N   4,C   8)          118.1176         0.460944   
     49. A(S   2,N   5,C   9)          118.1050         0.460225   
     50. A(Fe  0,N   6,C  10)          115.8407         0.445563   
     51. A(Fe  0,N   6,C  17)          124.5730         0.447561   
     52. A(C  10,N   6,C  17)          119.5863         0.439346   
     53. A(Fe  0,N   7,C  26)          125.7212         0.443073   
     54. A(Fe  0,N   7,C  19)          115.4341         0.441481   
     55. A(C  19,N   7,C  26)          118.8447         0.437796   
     56. A(N   3,C   8,N   4)          128.6186         0.444637   
     57. A(N   4,C   8,C  10)          119.2708         0.429573   
     58. A(N   3,C   8,C  10)          112.1106         0.400457   
     59. A(N   3,C   9,N   5)          128.5669         0.444379   
     60. A(N   5,C   9,C  19)          119.1996         0.428939   
     61. A(N   3,C   9,C  19)          112.2335         0.401766   
     62. A(C   8,C  10,C  11)          123.9633         0.410646   
     63. A(N   6,C  10,C  11)          121.7223         0.436627   
     64. A(N   6,C  10,C   8)          114.3144         0.411356   
     65. A(H  12,C  11,C  13)          120.7205         0.387804   
     66. A(C  10,C  11,C  13)          118.5563         0.437565   
     67. A(C  10,C  11,H  12)          120.7232         0.386343   
     68. A(H  14,C  13,C  15)          120.1477         0.387759   
     69. A(C  11,C  13,C  15)          119.7080         0.439189   
     70. A(C  11,C  13,H  14)          120.1442         0.387834   
     71. A(H  16,C  15,C  17)          120.6098         0.386145   
     72. A(C  13,C  15,C  17)          118.8078         0.437458   
     73. A(C  13,C  15,H  16)          120.5824         0.387545   
     74. A(C  15,C  17,H  18)          119.2111         0.386184   
     75. A(N   6,C  17,H  18)          119.1696         0.388525   
     76. A(N   6,C  17,C  15)          121.6193         0.438556   
     77. A(C   9,C  19,C  20)          123.6981         0.412060   
     78. A(N   7,C  19,C  20)          121.8179         0.437038   
     79. A(N   7,C  19,C   9)          114.4840         0.411308   
     80. A(H  21,C  20,C  22)          120.4674         0.388163   
     81. A(C  19,C  20,C  22)          119.0479         0.438948   
     82. A(C  19,C  20,H  21)          120.4847         0.387225   
     83. A(H  23,C  22,C  24)          120.4389         0.387970   
     84. A(C  20,C  22,C  24)          119.1496         0.439906   
     85. A(C  20,C  22,H  23)          120.4115         0.388092   
     86. A(H  25,C  24,C  26)          120.5052         0.387845   
     87. A(C  22,C  24,C  26)          119.0595         0.439692   
     88. A(C  22,C  24,H  25)          120.4353         0.387905   
     89. A(C  24,C  26,H  27)          118.9503         0.387981   
     90. A(N   7,C  26,H  27)          118.9692         0.387874   
     91. A(N   7,C  26,C  24)          122.0805         0.439496   
     92. D(C   9,N   3,Fe  0,N   6)    180.0000         0.003644   
     93. D(C   8,N   3,Fe  0,N   7)    180.0000         0.003644   
     94. D(C   8,N   3,Fe  0,Cl  1)    -89.0364         0.003644   
     95. D(C   8,N   3,Fe  0,Cl 28)     89.0364         0.003644   
     96. D(C   8,N   3,Fe  0,N   6)      0.0000         0.003644   
     97. D(C   9,N   3,Fe  0,Cl  1)     90.9636         0.003644   
     98. D(C   8,N   4,S   2,N   5)      0.0000         0.005352   
     99. D(C   9,N   5,S   2,N   4)      0.0000         0.005405   
    100. D(C  17,N   6,Fe  0,N   3)    180.0000         0.002216   
    101. D(C  10,N   6,Fe  0,N   7)      0.0000         0.002216   
    102. D(C  17,N   6,Fe  0,Cl  1)    -56.1996         0.002216   
    103. D(C  10,N   6,Fe  0,Cl 28)   -123.8004         0.002216   
    104. D(C  10,N   6,Fe  0,Cl  1)    123.8004         0.002216   
    105. D(C  10,N   6,Fe  0,N   3)      0.0000         0.002216   
    106. D(C  19,N   7,Fe  0,Cl  1)   -123.4861         0.002157   
    107. D(C  26,N   7,Fe  0,N   3)    180.0000         0.002157   
    108. D(C  26,N   7,Fe  0,Cl  1)     56.5139         0.002157   
    109. D(C  19,N   7,Fe  0,Cl 28)    123.4861         0.002157   
    110. D(C  19,N   7,Fe  0,N   6)      0.0000         0.002157   
    111. D(C  19,N   7,Fe  0,N   3)      0.0000         0.002157   
    112. D(C  10,C   8,N   4,S   2)    180.0000         0.054657   
    113. D(N   3,C   8,N   4,S   2)      0.0000         0.054657   
    114. D(C  10,C   8,N   3,C   9)    180.0000         0.025447   
    115. D(C  10,C   8,N   3,Fe  0)      0.0000         0.025447   
    116. D(N   4,C   8,N   3,C   9)      0.0000         0.025447   
    117. D(N   4,C   8,N   3,Fe  0)    180.0000         0.025447   
    118. D(C  19,C   9,N   3,C   8)    180.0000         0.026091   
    119. D(C  19,C   9,N   3,Fe  0)      0.0000         0.026091   
    120. D(N   5,C   9,N   3,C   8)      0.0000         0.026091   
    121. D(N   3,C   9,N   5,S   2)      0.0000         0.052843   
    122. D(N   5,C   9,N   3,Fe  0)    180.0000         0.026091   
    123. D(C  19,C   9,N   5,S   2)    180.0000         0.052843   
    124. D(C  11,C  10,C   8,N   4)      0.0000         0.013763   
    125. D(N   6,C  10,C   8,N   4)    180.0000         0.013763   
    126. D(N   6,C  10,C   8,N   3)      0.0000         0.013763   
    127. D(C  11,C  10,N   6,C  17)      0.0000         0.035274   
    128. D(C  11,C  10,N   6,Fe  0)    180.0000         0.035274   
    129. D(C  11,C  10,C   8,N   3)    180.0000         0.013763   
    130. D(C   8,C  10,N   6,C  17)    180.0000         0.035274   
    131. D(C   8,C  10,N   6,Fe  0)      0.0000         0.035274   
    132. D(C  13,C  11,C  10,C   8)    180.0000         0.027255   
    133. D(C  13,C  11,C  10,N   6)      0.0000         0.027255   
    134. D(H  12,C  11,C  10,C   8)      0.0000         0.027255   
    135. D(H  12,C  11,C  10,N   6)    180.0000         0.027255   
    136. D(C  15,C  13,C  11,H  12)    180.0000         0.028541   
    137. D(C  15,C  13,C  11,C  10)      0.0000         0.028541   
    138. D(H  14,C  13,C  11,H  12)      0.0000         0.028541   
    139. D(H  14,C  13,C  11,C  10)    180.0000         0.028541   
    140. D(C  17,C  15,C  13,H  14)    180.0000         0.028474   
    141. D(C  17,C  15,C  13,C  11)      0.0000         0.028474   
    142. D(H  16,C  15,C  13,H  14)      0.0000         0.028474   
    143. D(H  16,C  15,C  13,C  11)    180.0000         0.028474   
    144. D(H  18,C  17,C  15,H  16)      0.0000         0.027241   
    145. D(N   6,C  17,C  15,H  16)    180.0000         0.027241   
    146. D(N   6,C  17,C  15,C  13)      0.0000         0.027241   
    147. D(H  18,C  17,N   6,C  10)    180.0000         0.037227   
    148. D(H  18,C  17,N   6,Fe  0)      0.0000         0.037227   
    149. D(H  18,C  17,C  15,C  13)    180.0000         0.027241   
    150. D(C  15,C  17,N   6,C  10)      0.0000         0.037227   
    151. D(C  15,C  17,N   6,Fe  0)    180.0000         0.037227   
    152. D(C  20,C  19,N   7,Fe  0)    180.0000         0.034709   
    153. D(C   9,C  19,N   7,C  26)    180.0000         0.034709   
    154. D(C   9,C  19,N   7,Fe  0)      0.0000         0.034709   
    155. D(C  20,C  19,C   9,N   5)      0.0000         0.013946   
    156. D(C  20,C  19,C   9,N   3)    180.0000         0.013946   
    157. D(N   7,C  19,C   9,N   5)    180.0000         0.013946   
    158. D(N   7,C  19,C   9,N   3)      0.0000         0.013946   
    159. D(C  20,C  19,N   7,C  26)      0.0000         0.034709   
    160. D(C  22,C  20,C  19,C   9)    180.0000         0.027998   
    161. D(C  22,C  20,C  19,N   7)      0.0000         0.027998   
    162. D(H  21,C  20,C  19,C   9)      0.0000         0.027998   
    163. D(H  21,C  20,C  19,N   7)    180.0000         0.027998   
    164. D(C  24,C  22,C  20,H  21)    180.0000         0.028839   
    165. D(C  24,C  22,C  20,C  19)      0.0000         0.028839   
    166. D(H  23,C  22,C  20,H  21)      0.0000         0.028839   
    167. D(H  23,C  22,C  20,C  19)    180.0000         0.028839   
    168. D(C  26,C  24,C  22,H  23)    180.0000         0.028729   
    169. D(C  26,C  24,C  22,C  20)      0.0000         0.028729   
    170. D(H  25,C  24,C  22,H  23)      0.0000         0.028729   
    171. D(H  25,C  24,C  22,C  20)    180.0000         0.028729   
    172. D(H  27,C  26,C  24,H  25)      0.0000         0.028674   
    173. D(H  27,C  26,C  24,C  22)    180.0000         0.028674   
    174. D(N   7,C  26,C  24,H  25)    180.0000         0.028674   
    175. D(N   7,C  26,C  24,C  22)      0.0000         0.028674   
    176. D(H  27,C  26,N   7,C  19)    180.0000         0.036248   
    177. D(H  27,C  26,N   7,Fe  0)      0.0000         0.036248   
    178. D(C  24,C  26,N   7,C  19)      0.0000         0.036248   
    179. D(C  24,C  26,N   7,Fe  0)    180.0000         0.036248   
    -----------------------------------------------------------------

Number of atoms                         .... 29
Number of degrees of freedom            .... 179


         *************************************************************
         *                GEOMETRY OPTIMIZATION CYCLE   1            *
         *************************************************************
---------------------------------
CARTESIAN COORDINATES (ANGSTROEM)
---------------------------------
  Fe    10.916000    1.792200    6.181000
  Cl    12.130100    3.619000    5.891900
  S      6.138000    1.792200    7.452000
  N      9.006400    1.792200    6.685700
  N      7.446900    1.792200    8.516200
  N      6.741000    1.792200    5.878400
  N     10.985900    1.792200    8.304500
  N      9.917700    1.792200    4.292100
  C      8.627400    1.792200    8.020700
  C      8.015400    1.792200    5.718800
  C      9.794100    1.792200    8.930900
  C      9.697300    1.792200   10.316500
  H      8.849100    1.792200   10.743600
  C     10.863100    1.792200   11.060700
  H     10.823200    1.792200   12.009400
  C     12.087500    1.792200   10.416800
  H     12.896300    1.792200   10.915900
  C     12.113400    1.792200    9.028000
  H     12.951300    1.792200    8.579800
  C      8.570500    1.792200    4.349100
  C      7.790900    1.792200    3.203700
  H      6.843400    1.792200    3.265900
  C      8.412000    1.792200    1.969400
  H      7.896400    1.792200    1.171700
  C      9.793000    1.792200    1.910600
  H     10.239000    1.792200    1.071700
  C     10.515300    1.792200    3.089400
  H     11.463900    1.792200    3.047200
  Cl    12.130100   -0.034600    5.891900

----------------------------
CARTESIAN COORDINATES (A.U.)
----------------------------
  NO LB      ZA    FRAG     MASS         X           Y           Z
   0 Fe   26.0000    0    55.850   20.628250    3.386767   11.680397
   1 Cl   17.0000    0    35.453   22.922567    6.838919   11.134077
   2 S    16.0000    0    32.060   11.599139    3.386767   14.082239
   3 N     7.0000    0    14.007   17.019629    3.386767   12.634142
   4 N     7.0000    0    14.007   14.072602    3.386767   16.093286
   5 N     7.0000    0    14.007   12.738644    3.386767   11.108566
   6 N     7.0000    0    14.007   20.760342    3.386767   15.693231
   7 N     7.0000    0    14.007   18.741737    3.386767    8.110894
   8 C     6.0000    0    12.011   16.303423    3.386767   15.156926
   9 C     6.0000    0    12.011   15.146911    3.386767   10.806966
  10 C     6.0000    0    12.011   18.508167    3.386767   16.876955
  11 C     6.0000    0    12.011   18.325241    3.386767   19.495360
  12 H     1.0000    0     1.008   16.722376    3.386767   20.302462
  13 C     6.0000    0    12.011   20.528284    3.386767   20.901694
  14 H     1.0000    0     1.008   20.452884    3.386767   22.694477
  15 C     6.0000    0    12.011   22.842065    3.386767   19.684899
  16 H     1.0000    0     1.008   24.370475    3.386767   20.628062
  17 C     6.0000    0    12.011   22.891009    3.386767   17.060448
  18 H     1.0000    0     1.008   24.474410    3.386767   16.213472
  19 C     6.0000    0    12.011   16.195898    3.386767    8.218608
  20 C     6.0000    0    12.011   14.722667    3.386767    6.054116
  21 H     1.0000    0     1.008   12.932152    3.386767    6.171657
  22 C     6.0000    0    12.011   15.896376    3.386767    3.721627
  23 H     1.0000    0     1.008   14.922033    3.386767    2.214192
  24 C     6.0000    0    12.011   18.506088    3.386767    3.610511
  25 H     1.0000    0     1.008   19.348906    3.386767    2.025219
  26 C     6.0000    0    12.011   19.871037    3.386767    5.838120
  27 H     1.0000    0     1.008   21.663631    3.386767    5.758373
  28 Cl   17.0000    0    35.453   22.922567   -0.065385   11.134077

--------------------------------
INTERNAL COORDINATES (ANGSTROEM)
--------------------------------
 Fe     0   0   0     0.000000000000     0.00000000     0.00000000
 Cl     1   0   0     2.212423074369     0.00000000     0.00000000
 S      1   2   0     4.944160697227   124.32691273     0.00000000
 N      1   2   3     1.975169423113   124.32850665     0.11113417
 N      3   1   2     1.686932378609    54.00913770   271.02630066
 N      3   1   2     1.685178316974    54.13694697    91.02630066
 N      1   2   3     2.124650150025    96.46212329   281.36271290
 N      1   2   3     2.136479838426    98.09930797    79.79671369
 C      5   3   1     1.280273603571   118.11757990     0.00000000
 C      6   3   1     1.284354904222   118.10501685     0.00000000
 C      7   1   2     1.346389319625   115.84069130   123.80039006
 C     11   7   1     1.388977177638   121.72230817   180.00000000
 H     12  11   7     0.949661860875   120.72321355   180.00000000
 C     12  11   7     1.383084697334   118.55625734     0.00000000
 H     14  12  11     0.949538677464   120.14422859   180.00000000
 C     14  12  11     1.383388076427   119.70802677     0.00000000
 H     16  14  12     0.950398995159   120.58235856   180.00000000
 C      7   1   2     1.339667309447   124.57303111   303.80039006
 H     18   7   1     0.950241890257   119.16959950     0.00000000
 C      8   1   2     1.348405295154   115.43410134   236.51393920
 C     20   8   1     1.385538638942   121.81785848   180.00000000
 H     21  20   8     0.949539409398   120.48472180   180.00000085
 C     21  20   8     1.381760362726   119.04785400     0.00000000
 H     23  21  20     0.949825589253   120.41150921   180.00000000
 C     23  21  20     1.382251221739   119.14960751     0.00000000
 H     25  23  21     0.950089053721   120.43534024   180.00000000
 C      8   1   2     1.342986615719   125.72120545    56.51393920
 H     27   8   1     0.949538203549   118.96917075     0.00000000
 Cl     1   2   3     2.212423074369   111.31925795   181.81954222

---------------------------
INTERNAL COORDINATES (A.U.)
---------------------------
 Fe     0   0   0     0.000000000000     0.00000000     0.00000000
 Cl     1   0   0     4.180873702925     0.00000000     0.00000000
 S      1   2   0     9.343109679855   124.32691273     0.00000000
 N      1   2   3     3.732529277779   124.32850665     0.11113417
 N      3   1   2     3.187840202016    54.00913770   271.02630066
 N      3   1   2     3.184525505904    54.13694697    91.02630066
 N      1   2   3     4.015006913941    96.46212329   281.36271290
 N      1   2   3     4.037361785269    98.09930797    79.79671369
 C      5   3   1     2.419366487237   118.11757990     0.00000000
 C      6   3   1     2.427079027739   118.10501685     0.00000000
 C      7   1   2     2.544307083728   115.84069130   123.80039006
 C     11   7   1     2.624786472003   121.72230817   180.00000000
 H     12  11   7     1.794600836883   120.72321355   180.00000000
 C     12  11   7     2.613651297979   118.55625734     0.00000000
 H     14  12  11     1.794368053973   120.14422859   180.00000000
 C     14  12  11     2.614224601379   119.70802677     0.00000000
 H     16  14  12     1.795993818805   120.58235856   180.00000000
 C      7   1   2     2.531604325421   124.57303111   303.80039006
 H     18   7   1     1.795696933566   119.16959950     0.00000000
 C      8   1   2     2.548116725371   115.43410134   236.51393920
 C     20   8   1     2.618288575566   121.81785848   180.00000000
 H     21  20   8     1.794369437128   120.48472180   180.00000085
 C     21  20   8     2.611148668259   119.04785400     0.00000000
 H     23  21  20     1.794910238679   120.41150921   180.00000000
 C     23  21  20     2.612076257365   119.14960751     0.00000000
 H     25  23  21     1.795408114369   120.43534024   180.00000000
 C      8   1   2     2.537876905230   125.72120545    56.51393920
 H     27   8   1     1.794367158404   118.96917075     0.00000000
 Cl     1   2   3     4.180873702925   111.31925795   181.81954222

---------------------
BASIS SET INFORMATION
---------------------
There are 6 groups of distinct atoms

 Group   1 Type Fe  : 17s11p7d1f contracted to 6s4p4d1f pattern {842111/6311/4111/1}
 Group   2 Type Cl  : 14s9p3d1f contracted to 5s5p2d1f pattern {73211/51111/21/1}
 Group   3 Type S   : 14s9p3d1f contracted to 5s5p2d1f pattern {73211/51111/21/1}
 Group   4 Type N   : 11s6p2d1f contracted to 5s3p2d1f pattern {62111/411/11/1}
 Group   5 Type C   : 11s6p2d1f contracted to 5s3p2d1f pattern {62111/411/11/1}
 Group   6 Type H   : 5s1p contracted to 3s1p pattern {311/1}

Atom   0Fe   basis set group =>   1
Atom   1Cl   basis set group =>   2
Atom   2S    basis set group =>   3
Atom   3N    basis set group =>   4
Atom   4N    basis set group =>   4
Atom   5N    basis set group =>   4
Atom   6N    basis set group =>   4
Atom   7N    basis set group =>   4
Atom   8C    basis set group =>   5
Atom   9C    basis set group =>   5
Atom  10C    basis set group =>   5
Atom  11C    basis set group =>   5
Atom  12H    basis set group =>   6
Atom  13C    basis set group =>   5
Atom  14H    basis set group =>   6
Atom  15C    basis set group =>   5
Atom  16H    basis set group =>   6
Atom  17C    basis set group =>   5
Atom  18H    basis set group =>   6
Atom  19C    basis set group =>   5
Atom  20C    basis set group =>   5
Atom  21H    basis set group =>   6
Atom  22C    basis set group =>   5
Atom  23H    basis set group =>   6
Atom  24C    basis set group =>   5
Atom  25H    basis set group =>   6
Atom  26C    basis set group =>   5
Atom  27H    basis set group =>   6
Atom  28Cl   basis set group =>   2
---------------------------------
AUXILIARY/J BASIS SET INFORMATION
---------------------------------
There are 6 groups of distinct atoms

 Group   1 Type Fe  : 19s5p5d3f3g contracted to 8s5p5d2f3g pattern {121111111/11111/11111/21/111}
 Group   2 Type Cl  : 14s5p5d2f1g contracted to 8s4p3d1f1g pattern {71111111/2111/311/2/1}
 Group   3 Type S   : 14s5p5d2f1g contracted to 8s4p3d1f1g pattern {71111111/2111/311/2/1}
 Group   4 Type N   : 12s5p4d2f1g contracted to 6s4p3d1f1g pattern {711111/2111/211/2/1}
 Group   5 Type C   : 12s5p4d2f1g contracted to 6s4p3d1f1g pattern {711111/2111/211/2/1}
 Group   6 Type H   : 5s2p1d contracted to 3s1p1d pattern {311/2/1}

Atom   0Fe   basis set group =>   1
Atom   1Cl   basis set group =>   2
Atom   2S    basis set group =>   3
Atom   3N    basis set group =>   4
Atom   4N    basis set group =>   4
Atom   5N    basis set group =>   4
Atom   6N    basis set group =>   4
Atom   7N    basis set group =>   4
Atom   8C    basis set group =>   5
Atom   9C    basis set group =>   5
Atom  10C    basis set group =>   5
Atom  11C    basis set group =>   5
Atom  12H    basis set group =>   6
Atom  13C    basis set group =>   5
Atom  14H    basis set group =>   6
Atom  15C    basis set group =>   5
Atom  16H    basis set group =>   6
Atom  17C    basis set group =>   5
Atom  18H    basis set group =>   6
Atom  19C    basis set group =>   5
Atom  20C    basis set group =>   5
Atom  21H    basis set group =>   6
Atom  22C    basis set group =>   5
Atom  23H    basis set group =>   6
Atom  24C    basis set group =>   5
Atom  25H    basis set group =>   6
Atom  26C    basis set group =>   5
Atom  27H    basis set group =>   6
Atom  28Cl   basis set group =>   2


           ************************************************************
           *        Program running with 16 parallel MPI-processes    *
           *              working on a common directory               *
           ************************************************************
------------------------------------------------------------------------------
                             ORCA STARTUP CALCULATIONS
                           -- RI-GTO INTEGRALS CHOSEN --
------------------------------------------------------------------------------
------------------------------------------------------------------------------
                   ___                                                        
                  /   \      - P O W E R E D   B Y -                         
                 /     \                                                     
                 |  |  |   _    _      __       _____    __    __             
                 |  |  |  | |  | |    /  \     |  _  \  |  |  /  |          
                  \  \/   | |  | |   /    \    | | | |  |  | /  /          
                 / \  \   | |__| |  /  /\  \   | |_| |  |  |/  /          
                |  |  |   |  __  | /  /__\  \  |    /   |      \           
                |  |  |   | |  | | |   __   |  |    \   |  |\   \          
                \     /   | |  | | |  |  |  |  | |\  \  |  | \   \       
                 \___/    |_|  |_| |__|  |__|  |_| \__\ |__|  \__/        
                                                                              
                      - O R C A' S   B I G   F R I E N D -                    
                                      &                                       
                       - I N T E G R A L  F E E D E R -                       
                                                                              
 v1 FN, 2020, v2 2021, v3 2022-2024                                           
------------------------------------------------------------------------------


----------------------
SHARK INTEGRAL PACKAGE
----------------------

Number of atoms                             ...     29
Number of basis functions                   ...    731
Number of shells                            ...    273
Maximum angular momentum                    ...      3
Integral batch strategy                     ... SHARK/LIBINT Hybrid
RI-J (if used) integral strategy            ... SPLIT-RIJ (Revised 2003 algorithm where possible)
Printlevel                                  ...      1
Contraction scheme used                     ... SEGMENTED contraction
Prescreening option                         ... SCHWARTZ
   Thresh                                   ... 2.500e-11
   Tcut                                     ... 2.500e-12
   Tpresel                                  ... 2.500e-12 
Coulomb Range Separation                    ... NOT USED
Exchange Range Separation                   ... NOT USED
Multipole approximations                    ... NOT USED
Finite Nucleus Model                        ... NOT USED
CABS basis                                  ... NOT available
Auxiliary Coulomb fitting basis             ... AVAILABLE
   # of basis functions in Aux-J            ...   1163
   # of shells in Aux-J                     ...    369
   Maximum angular momentum in Aux-J        ...      4
Auxiliary J/K fitting basis                 ... NOT available
Auxiliary Correlation fitting basis         ... NOT available
Auxiliary 'external' fitting basis          ... NOT available

Checking pre-screening integrals            ... done (  0.0 sec) Dimension = 273
Check shell pair data                       ... done (  0.0 sec)
Shell pair information
Shell pair cut-off parameter TPreSel        ...   2.5e-12
Total number of shell pairs                 ...     37401
Shell pairs after pre-screening             ...     26727
Total number of primitive shell pairs       ...    128330
Primitive shell pairs kept                  ...     58782
          la=0 lb=0:   5630 shell pairs
          la=1 lb=0:   7416 shell pairs
          la=1 lb=1:   2453 shell pairs
          la=2 lb=0:   4020 shell pairs
          la=2 lb=1:   2682 shell pairs
          la=2 lb=2:    773 shell pairs
          la=3 lb=0:   1751 shell pairs
          la=3 lb=1:   1183 shell pairs
          la=3 lb=2:    666 shell pairs
          la=3 lb=3:    153 shell pairs

Calculating one electron integrals          ... done (  0.0 sec)
done (  0.1 sec)
Calculating Nuclear repulsion               ... done (  0.0 sec) ENN=   2579.399530212817 Eh

Diagonalization of the overlap matrix:
Smallest eigenvalue                        ... 1.457e-05
Time for diagonalization                   ...    0.077 sec
Threshold for overlap eigenvalues          ... 1.000e-07
Number of eigenvalues below threshold      ... 0
Time for construction of square roots      ...    0.061 sec
Total time needed                          ...    0.157 sec

-------------------
DFT GRID GENERATION
-------------------

General Integration Accuracy     IntAcc      ... 4.959
Radial Grid Type                 RadialGrid  ... OptM3 with GC (2021)
Angular Grid (max. ang.)         AngularGrid ... 6 (Lebedev-590)
Angular grid pruning method      GridPruning ... 4 (adaptive)
Weight generation scheme         WeightScheme... mBecke (2022)
Basis function cutoff            BFCut       ... 1.0000e-11
Integration weight cutoff        WCut        ... 1.0000e-14
Partially contracted basis set               ... off
Rotationally invariant grid construction     ... off
Angular grids for H and He will be reduced by one unit
Core-polarized basis detected: some atoms will have their core
                               angular grid increased.

Total number of grid points                  ...   384619
Total number of batches                      ...     6025
Average number of points per batch           ...       63
Average number of grid points per atom       ...    13263

--------------------
COSX GRID GENERATION
--------------------

GRIDX 1
-------
General Integration Accuracy     IntAcc      ... 4.020
Radial Grid Type                 RadialGrid  ... OptM3 with GC (2021)
Angular Grid (max. ang.)         AngularGrid ... 2 (Lebedev-110)
Angular grid pruning method      GridPruning ... 4 (adaptive)
Weight generation scheme         WeightScheme... mBecke (2022)
Basis function cutoff            BFCut       ... 1.0000e-11
Integration weight cutoff        WCut        ... 1.0000e-14
Partially contracted basis set               ... on
Rotationally invariant grid construction     ... off
Angular grids for H and He will be reduced by one unit
Core-polarized basis detected: some atoms will have their core
                               angular grid increased.

Total number of grid points                  ...    47263
Total number of batches                      ...      384
Average number of points per batch           ...      123
Average number of grid points per atom       ...     1630
UseSFitting                                  ... on

GRIDX 2
-------
General Integration Accuracy     IntAcc      ... 4.338
Radial Grid Type                 RadialGrid  ... OptM3 with GC (2021)
Angular Grid (max. ang.)         AngularGrid ... 3 (Lebedev-194)
Angular grid pruning method      GridPruning ... 4 (adaptive)
Weight generation scheme         WeightScheme... mBecke (2022)
Basis function cutoff            BFCut       ... 1.0000e-11
Integration weight cutoff        WCut        ... 1.0000e-14
Partially contracted basis set               ... on
Rotationally invariant grid construction     ... off
Angular grids for H and He will be reduced by one unit
Core-polarized basis detected: some atoms will have their core
                               angular grid increased.

Total number of grid points                  ...    98955
Total number of batches                      ...      786
Average number of points per batch           ...      125
Average number of grid points per atom       ...     3412
UseSFitting                                  ... on

GRIDX 3
-------
General Integration Accuracy     IntAcc      ... 4.871
Radial Grid Type                 RadialGrid  ... OptM3 with GC (2021)
Angular Grid (max. ang.)         AngularGrid ... 4 (Lebedev-302)
Angular grid pruning method      GridPruning ... 4 (adaptive)
Weight generation scheme         WeightScheme... mBecke (2022)
Basis function cutoff            BFCut       ... 1.0000e-11
Integration weight cutoff        WCut        ... 1.0000e-14
Partially contracted basis set               ... on
Rotationally invariant grid construction     ... off
Angular grids for H and He will be reduced by one unit
Core-polarized basis detected: some atoms will have their core
                               angular grid increased.

Total number of grid points                  ...   180055
Total number of batches                      ...     1418
Average number of points per batch           ...      126
Average number of grid points per atom       ...     6209
UseSFitting                                  ... on
Initializing property integral containers    ... done (  0.0 sec)

SHARK setup successfully completed in   6.2 seconds

Maximum memory used throughout the entire STARTUP-calculation: 112.8 MB


           ************************************************************
           *        Program running with 16 parallel MPI-processes    *
           *              working on a common directory               *
           ************************************************************
-------------------------------------------------------------------------------
                                 ORCA GUESS
                   Start orbitals & Density for SCF / CASSCF
-------------------------------------------------------------------------------

------------
SCF SETTINGS
------------
Hamiltonian:
 Density Functional     Method          .... DFT(GTOs)
 Exchange Functional    Exchange        .... PBE
   PBE kappa parameter   XKappa         ....  0.804000
   PBE mue parameter    XMuePBE         ....  0.219520
 Correlation Functional Correlation     .... PBE
   PBE beta parameter  CBetaPBE         ....  0.066725
 LDA part of GGA corr.  LDAOpt          .... PW91-LDA
 Gradients option       PostSCFGGA      .... off
 Hybrid DFT is turned on
   Fraction HF Exchange ScalHFX         ....  0.250000
   Scaling of DF-GGA-X  ScalDFX         ....  0.750000
   Scaling of DF-GGA-C  ScalDFC         ....  1.000000
   Scaling of DF-LDA-C  ScalLDAC        ....  1.000000
   Perturbative correction              ....  0.000000
   NL short-range parameter             ....  6.900000
 RI-approximation to the Coulomb term is turned on
   Number of AuxJ basis functions       .... 1163
   RIJ-COSX (HFX calculated with COS-X)).... on


General Settings:
 Integral files         IntName         .... LUJNOV-S6
 Hartree-Fock type      HFTyp           .... UHF
 Total Charge           Charge          ....    0
 Multiplicity           Mult            ....    6
 Number of Electrons    NEL             ....  191
 Basis Dimension        Dim             ....  731
 Nuclear Repulsion      ENuc            ....   2579.3995302128 Eh

Convergence Acceleration:
 AO-DIIS                CNVDIIS         .... on
   Start iteration      DIISMaxIt       ....    12
   Startup error        DIISStart       ....  0.200000
   # of expansion vecs  DIISMaxEq       ....     5
   Bias factor          DIISBfac        ....   1.050
   Max. coefficient     DIISMaxC        ....  10.000
 MO-DIIS                CNVKDIIS        .... off
 Trust-Rad. Augm. Hess. CNVTRAH         .... auto
   Auto Start mean grad. ratio tolernc. ....  1.125000
   Auto Start start iteration           ....    50
   Auto Start num. interpolation iter.  ....    10
   Max. Number of Micro iterations      ....    24
   Max. Number of Macro iterations      .... Maxiter - #DIIS iter
   Number of Davidson start vectors     ....     2
   Converg. threshold    (grad. norm)   ....   1.000e-05
   Grad. Scal. Fac. for Micro threshold ....   0.100
   Minimum threshold for Micro iter.    ....   1.000e-02
   NR start threshold (gradient norm)   ....   1.000e-04
   Initial trust radius                 ....   0.400
   Minimum AH scaling param. (alpha)    ....   1.000
   Maximum AH scaling param. (alpha)    .... 1000.000
   Quad. conv. algorithm                .... NR
   White noise on init. David. guess    .... on
   Maximum white noise                  ....   0.010
   Pseudo random numbers                .... off
   Inactive MOs                         .... canonical
   Orbital update algorithm             .... Taylor
   Preconditioner                       .... Diag
   Full preconditioner red. dimension   ....   250
 SOSCF                  CNVSOSCF        .... on
   Start iteration      SOSCFMaxIt      ....   150
   Startup grad/error   SOSCFStart      ....  0.003300
   Hessian update       SOSCFHessUp     .... L-BFGS
 Level Shifting         CNVShift        .... on
   Level shift para.    LevelShift      ....    0.2500
   Turn off err/grad.   ShiftErr        ....    0.0010
 Zerner damping         CNVZerner       .... off
 Static damping         CNVDamp         .... on
   Fraction old density DampFac         ....    0.7000
   Max. Damping (<1)    DampMax         ....    0.9800
   Min. Damping (>=0)   DampMin         ....    0.0000
   Turn off err/grad.   DampErr         ....    0.1000

SCF Procedure:
 Maximum # iterations   MaxIter         ....   125
 SCF integral mode      SCFMode         .... Direct
   Integral package                     .... SHARK and LIBINT hybrid scheme
 Reset frequency        DirectResetFreq ....    20
 Integral Threshold     Thresh          ....  2.500e-11 Eh
 Primitive CutOff       TCut            ....  2.500e-12 Eh

Convergence Tolerance:
 Convergence Check Mode ConvCheckMode   .... Total+1el-Energy
 Convergence forced     ConvForced      .... 0
 Energy Change          TolE            ....  1.000e-08 Eh
 1-El. energy change                    ....  1.000e-05 Eh
 Orbital Gradient       TolG            ....  1.000e-05
 Orbital Rotation angle TolX            ....  1.000e-05
 DIIS Error             TolErr          ....  5.000e-07

------------------------------
INITIAL GUESS: MODEL POTENTIAL
------------------------------
Loading Hartree-Fock densities                     ... done
Calculating cut-offs                               ... done
Initializing the effective Hamiltonian             ... done
Setting up the integral package (SHARK)            ... done
done (   0.2 sec)
Making the grid                                    ... done (   0.2 sec)
Mapping shells                                     ... done
Starting the XC term evaluation                    ... done (   0.1 sec)
  promolecular density results
     # of electrons  =    190.989659035
     EX              =   -230.537099088
     EC              =     -7.060249265
     EX+EC           =   -237.597348353
Transforming the Hamiltonian                       ... done (   0.1 sec)
done (   0.1 sec)
Back transforming the eigenvectors                 ... done (   0.1 sec)
done
                      ------------------
                      INITIAL GUESS DONE (   0.9 sec)
                      ------------------
             **** ENERGY FILE WAS UPDATED (LUJNOV-S6.en.tmp) ****
Finished Guess after   1.3 sec
Maximum memory used throughout the entire GUESS-calculation: 53.5 MB


           ************************************************************
           *        Program running with 16 parallel MPI-processes    *
           *              working on a common directory               *
           ************************************************************

-------------------------------------------------------------------------------------------
                                      ORCA LEAN-SCF
                              memory conserving SCF solver
-------------------------------------------------------------------------------------------

----------------------------------------D-I-I-S--------------------------------------------
Iteration    Energy (Eh)           Delta-E    RMSDP     MaxDP     DIISErr   Damp  Time(sec)
-------------------------------------------------------------------------------------------
               ***  Starting incremental Fock matrix formation  ***
    1    -3316.2616394119049801     0.00e+00  6.25e-04  6.70e-02  1.77e-01  0.700  12.6
Warning: op=0 Small HOMO/LUMO gap (   0.061) - skipping pre-diagonalization
         Will do a full diagonalization
    2    -3316.5194653851331168    -2.58e-01  4.56e-04  3.36e-02  5.77e-02  0.700   7.8
                               ***Turning on AO-DIIS***
    3    -3316.6472021677218436    -1.28e-01  2.30e-04  1.54e-02  2.64e-02  0.700   6.8
    4    -3316.7214632303466715    -7.43e-02  4.59e-04  3.92e-02  3.74e-02  0.000   6.8
    5    -3316.9012655820060900    -1.80e-01  1.32e-04  1.16e-02  2.16e-02  0.000   6.7
    6    -3316.9057637376208731    -4.50e-03  7.18e-05  5.84e-03  6.58e-03  0.000   6.4
                              *** Initializing SOSCF ***
---------------------------------------S-O-S-C-F--------------------------------------
Iteration    Energy (Eh)           Delta-E    RMSDP     MaxDP     MaxGrad    Time(sec)
--------------------------------------------------------------------------------------
    7    -3316.9071569269754036    -1.39e-03  3.51e-05  3.22e-03  3.02e-03     6.6
               *** Restarting incremental Fock matrix formation ***
    8    -3316.9078368808013693    -6.80e-04  4.26e-05  5.25e-03  5.21e-03    12.5
    9    -3316.9084324597370141    -5.96e-04  1.71e-04  2.17e-02  4.42e-03     9.5
   10    -3316.9089373978140429    -5.05e-04  4.86e-05  3.95e-03  4.97e-03    10.0
   11    -3316.9093857012803710    -4.48e-04  4.27e-05  3.46e-03  2.04e-03     9.2
   12    -3316.9094898762705270    -1.04e-04  2.53e-05  3.47e-03  1.42e-03     9.1
   13    -3316.9095587717529270    -6.89e-05  2.05e-05  3.42e-03  8.48e-04     8.7
   14    -3316.9095790998508164    -2.03e-05  1.04e-05  1.67e-03  4.59e-04     8.6
   15    -3316.9095913088158341    -1.22e-05  5.18e-06  6.88e-04  2.95e-04     8.2
   16    -3316.9095939689113948    -2.66e-06  3.00e-06  4.26e-04  1.74e-04     7.9
   17    -3316.9095962446208432    -2.28e-06  2.24e-06  1.92e-04  8.02e-05     7.4
   18    -3316.9095966520053480    -4.07e-07  1.37e-06  1.21e-04  6.96e-05     7.0
   19    -3316.9095969059453637    -2.54e-07  1.18e-06  9.59e-05  2.61e-05     6.7
   20    -3316.9095969440204499    -3.81e-08  1.26e-06  1.04e-04  2.60e-05     6.0
   21    -3316.9095969867812528    -4.28e-08  1.13e-06  8.63e-05  1.93e-05     5.9
   22    -3316.9095970134349045    -2.67e-08  1.20e-06  9.33e-05  1.53e-05     5.9
   23    -3316.9095970450434834    -3.16e-08  2.62e-06  2.12e-04  1.14e-05     5.8
   24    -3316.9095970760572527    -3.10e-08  2.57e-06  3.15e-04  2.93e-05     7.0
Curvature condition for BFGS not met. Restarting diagonal Hessian.
   25    -3316.9095971195210950    -4.35e-08  2.49e-04  1.22e-02  7.22e-05     7.4
   26    -3316.9075964617713908     2.00e-03  1.94e-04  1.02e-02  1.01e-02    11.1
   27    -3316.9095931150932302    -2.00e-03  1.97e-04  1.06e-02  5.75e-03    10.6
               *** Restarting incremental Fock matrix formation ***
               *** Scaled step length from 0.222264 to 0.200000 ***
   28    -3316.9114518995311300    -1.86e-03  2.20e-04  2.00e-02  8.48e-03    12.7
               *** Scaled step length from 41.160193 to 0.200000 ***
   29    -3316.9147214422127945    -3.27e-03  2.23e-04  2.98e-02  1.12e-02    11.0
               *** Scaled step length from 0.567384 to 0.200000 ***
   30    -3316.9172543621125442    -2.53e-03  2.34e-04  3.11e-02  1.29e-02    10.8
               *** Scaled step length from 0.298008 to 0.200000 ***
   31    -3316.9195593720141915    -2.31e-03  2.44e-04  3.72e-02  1.49e-02    10.9
               *** Scaled step length from 1.567042 to 0.200000 ***
   32    -3316.9224919023390612    -2.93e-03  2.37e-04  3.21e-02  1.82e-02    11.0
               *** Scaled step length from 3.418690 to 0.200000 ***
   33    -3316.9260282320528859    -3.54e-03  2.29e-04  2.44e-02  1.97e-02    10.6
               *** Scaled step length from 0.302513 to 0.200000 ***
   34    -3316.9291514797641867    -3.12e-03  2.86e-04  2.11e-02  1.96e-02    11.1
   35    -3316.9335529903237330    -4.40e-03  4.15e-04  2.47e-02  2.13e-02    10.8
               *** Scaled step length from 0.215564 to 0.200000 ***
   36    -3316.9429273328860290    -9.37e-03  2.19e-04  3.16e-02  3.05e-02    11.0
               *** Scaled step length from 0.278575 to 0.200000 ***
   37    -3316.9539280844464884    -1.10e-02  3.74e-04  2.98e-02  2.40e-02    10.8
   38    -3316.9634014340208523    -9.47e-03  2.99e-04  3.38e-02  9.56e-03    11.1
   39    -3316.9677878352722473    -4.39e-03  1.85e-04  1.71e-02  1.12e-02    10.8
   40    -3316.9708714718435658    -3.08e-03  1.90e-04  3.18e-02  1.08e-02    10.4
               *** Scaled step length from 0.211934 to 0.200000 ***
   41    -3316.9747278626418847    -3.86e-03  2.96e-04  3.34e-02  1.05e-02    10.7
               *** Scaled step length from 0.270444 to 0.200000 ***
   42    -3316.9792930653202347    -4.57e-03  2.58e-04  3.20e-02  1.25e-02    11.1
               *** Scaled step length from 0.309420 to 0.200000 ***
   43    -3316.9835344144848932    -4.24e-03  2.16e-04  2.53e-02  2.12e-02    11.0
               *** Scaled step length from 0.323159 to 0.200000 ***
   44    -3316.9885255107719786    -4.99e-03  2.16e-04  2.63e-02  2.36e-02    10.6
   45    -3316.9937315099523403    -5.21e-03  2.81e-04  2.07e-02  1.63e-02    10.7
   46    -3316.9966313073273341    -2.90e-03  1.96e-04  2.33e-02  5.59e-03    11.3
   47    -3316.9973296765001578    -6.98e-04  1.37e-04  1.90e-02  8.57e-03    10.5
               *** Restarting incremental Fock matrix formation ***
   48    -3316.9982937015929565    -9.64e-04  6.45e-05  3.76e-03  2.53e-03    12.6
   49    -3316.9987066523135582    -4.13e-04  3.52e-05  3.38e-03  1.97e-03     9.9
   50    -3316.9989139325425640    -2.07e-04  2.03e-05  2.20e-03  9.38e-04     9.5
   51    -3316.9989511593621501    -3.72e-05  9.42e-06  5.42e-04  6.94e-04     9.2
   52    -3316.9989780322202932    -2.69e-05  8.55e-06  5.92e-04  4.33e-04     8.8
   53    -3316.9989849373969264    -6.91e-06  3.84e-06  3.70e-04  2.56e-04     8.5
   54    -3316.9989883576517968    -3.42e-06  3.65e-06  2.55e-04  1.86e-04     7.9
   55    -3316.9989900769996893    -1.72e-06  2.73e-06  2.58e-04  1.19e-04     7.7
   56    -3316.9989911380289414    -1.06e-06  3.05e-06  2.84e-04  7.30e-05     7.5
   57    -3316.9989915928308619    -4.55e-07  1.27e-06  8.95e-05  5.04e-05     7.5
   58    -3316.9989917698949284    -1.77e-07  1.61e-06  1.31e-04  2.80e-05     6.7
   59    -3316.9989918481705899    -7.83e-08  1.34e-06  1.12e-04  1.75e-05     6.8
   60    -3316.9989918515011595    -3.33e-09  1.08e-06  9.86e-05  1.24e-05     6.2
                 **** Energy Check signals convergence ****

               *****************************************************
               *                     SUCCESS                       *
               *           SCF CONVERGED AFTER  60 CYCLES          *
               *****************************************************

 done (   16.246 sec)
Old exchange energy                            :    -58.290207304 Eh
New exchange energy                            :    -58.290232004 Eh
Exchange energy change after final integration :     -0.000024700 Eh
Total energy after final integration           :  -3316.999016552 Eh
             **** ENERGY FILE WAS UPDATED (LUJNOV-S6.en.tmp) ****

----------------
TOTAL SCF ENERGY
----------------

Total Energy       :      -3316.99901655184476 Eh          -90260.13198 eV

Components:
Nuclear Repulsion  :       2579.39953021281690 Eh           70189.02956 eV
Electronic Energy  :      -5896.39852206431806 Eh         -160449.16086 eV
One Electron Energy:      -9701.20891689198106 Eh         -263983.31528 eV
Two Electron Energy:       3804.81039482766300 Eh          103534.15442 eV

Virial components:
Potential Energy   :      -6629.26439943707646 Eh         -180391.45523 eV
Kinetic Energy     :       3312.26538288523170 Eh           90131.32326 eV
Virial Ratio       :          2.00142912270589

DFT components:
N(Alpha)           :       97.999999295509 electrons
N(Beta)            :       92.999999580487 electrons
N(Total)           :      190.999998875996 electrons
E(X)               :     -174.373798497876 Eh       
E(C)               :       -7.036070541992 Eh       
E(XC)              :     -181.409869039869 Eh       

---------------
SCF CONVERGENCE
---------------

  Last Energy change         ...    3.3306e-09  Tolerance :   1.0000e-08
  Last MAX-Density change    ...    9.8623e-05  Tolerance :   1.0000e-07
  Last RMS-Density change    ...    1.0789e-06  Tolerance :   5.0000e-09
  Last DIIS Error            ...    3.0241e-03  Tolerance :   5.0000e-07
  Last Orbital Gradient      ...    1.2427e-05  Tolerance :   1.0000e-05
  Last Orbital Rotation      ...    7.7759e-05  Tolerance :   1.0000e-05


----------------------
UHF SPIN CONTAMINATION
----------------------

Warning: in a DFT calculation there is little theoretical justification to 
         calculate <S**2> as in Hartree-Fock theory. We will do it anyways
         but you should keep in mind that the values have only limited relevance

Expectation value of <S**2>     :     8.773063
Ideal value S*(S+1) for S=2.5   :     8.750000
Deviation                       :     0.023063

----------------
ORBITAL ENERGIES
----------------
                 SPIN UP ORBITALS
  NO   OCC          E(Eh)            E(eV) 
   0   1.0000    -256.465480     -6978.7805 
   1   1.0000    -101.648490     -2765.9960 
   2   1.0000    -101.648485     -2765.9959 
   3   1.0000     -89.079654     -2423.9806 
   4   1.0000     -30.288262      -824.1855 
   5   1.0000     -26.108863      -710.4583 
   6   1.0000     -26.105230      -710.3594 
   7   1.0000     -26.103942      -710.3244 
   8   1.0000     -14.447141      -393.1267 
   9   1.0000     -14.446240      -393.1022 
  10   1.0000     -14.416698      -392.2983 
  11   1.0000     -14.416510      -392.2932 
  12   1.0000     -14.408033      -392.0625 
  13   1.0000     -10.327108      -281.0149 
  14   1.0000     -10.327031      -281.0128 
  15   1.0000     -10.306849      -280.4636 
  16   1.0000     -10.306822      -280.4629 
  17   1.0000     -10.283722      -279.8343 
  18   1.0000     -10.283697      -279.8336 
  19   1.0000     -10.259811      -279.1836 
  20   1.0000     -10.259348      -279.1711 
  21   1.0000     -10.252604      -278.9875 
  22   1.0000     -10.252164      -278.9756 
  23   1.0000     -10.250598      -278.9329 
  24   1.0000     -10.250194      -278.9220 
  25   1.0000      -9.475122      -257.8312 
  26   1.0000      -9.475111      -257.8309 
  27   1.0000      -8.052522      -219.1203 
  28   1.0000      -7.205785      -196.0794 
  29   1.0000      -7.205782      -196.0793 
  30   1.0000      -7.203565      -196.0190 
  31   1.0000      -7.203563      -196.0189 
  32   1.0000      -7.203166      -196.0081 
  33   1.0000      -7.203165      -196.0081 
  34   1.0000      -5.991392      -163.0341 
  35   1.0000      -5.984823      -162.8553 
  36   1.0000      -5.980561      -162.7393 
  37   1.0000      -3.712104      -101.0115 
  38   1.0000      -2.478808       -67.4518 
  39   1.0000      -2.471025       -67.2400 
  40   1.0000      -2.469147       -67.1889 
  41   1.0000      -1.053624       -28.6706 
  42   1.0000      -1.026733       -27.9388 
  43   1.0000      -1.016521       -27.6609 
  44   1.0000      -0.956692       -26.0329 
  45   1.0000      -0.928186       -25.2572 
  46   1.0000      -0.876044       -23.8384 
  47   1.0000      -0.874187       -23.7878 
  48   1.0000      -0.840682       -22.8761 
  49   1.0000      -0.839698       -22.8493 
  50   1.0000      -0.790452       -21.5093 
  51   1.0000      -0.784887       -21.3579 
  52   1.0000      -0.755761       -20.5653 
  53   1.0000      -0.744046       -20.2465 
  54   1.0000      -0.709542       -19.3076 
  55   1.0000      -0.708046       -19.2669 
  56   1.0000      -0.693339       -18.8667 
  57   1.0000      -0.663470       -18.0539 
  58   1.0000      -0.619859       -16.8672 
  59   1.0000      -0.589653       -16.0453 
  60   1.0000      -0.582598       -15.8533 
  61   1.0000      -0.561006       -15.2658 
  62   1.0000      -0.543435       -14.7876 
  63   1.0000      -0.541058       -14.7229 
  64   1.0000      -0.527893       -14.3647 
  65   1.0000      -0.521435       -14.1890 
  66   1.0000      -0.510786       -13.8992 
  67   1.0000      -0.500863       -13.6292 
  68   1.0000      -0.500058       -13.6073 
  69   1.0000      -0.489247       -13.3131 
  70   1.0000      -0.489172       -13.3111 
  71   1.0000      -0.476087       -12.9550 
  72   1.0000      -0.469556       -12.7773 
  73   1.0000      -0.464760       -12.6468 
  74   1.0000      -0.460529       -12.5316 
  75   1.0000      -0.455374       -12.3913 
  76   1.0000      -0.444860       -12.1052 
  77   1.0000      -0.437592       -11.9075 
  78   1.0000      -0.424970       -11.5640 
  79   1.0000      -0.423768       -11.5313 
  80   1.0000      -0.393248       -10.7008 
  81   1.0000      -0.389419       -10.5966 
  82   1.0000      -0.378743       -10.3061 
  83   1.0000      -0.367029        -9.9874 
  84   1.0000      -0.361900        -9.8478 
  85   1.0000      -0.342206        -9.3119 
  86   1.0000      -0.340184        -9.2569 
  87   1.0000      -0.340050        -9.2532 
  88   1.0000      -0.314524        -8.5586 
  89   1.0000      -0.306122        -8.3300 
  90   1.0000      -0.304247        -8.2790 
  91   1.0000      -0.301890        -8.2149 
  92   1.0000      -0.295324        -8.0362 
  93   1.0000      -0.293236        -7.9794 
  94   1.0000      -0.288294        -7.8449 
  95   1.0000      -0.282384        -7.6841 
  96   1.0000      -0.276865        -7.5339 
  97   1.0000      -0.204326        -5.5600 
  98   0.0000      -0.100292        -2.7291 
  99   0.0000      -0.073508        -2.0003 
 100   0.0000      -0.062635        -1.7044 
 101   0.0000      -0.052228        -1.4212 
 102   0.0000       0.009855         0.2682 
 103   0.0000       0.027232         0.7410 
 104   0.0000       0.036696         0.9986 
 105   0.0000       0.047619         1.2958 
 106   0.0000       0.062435         1.6990 
 107   0.0000       0.065211         1.7745 
 108   0.0000       0.070238         1.9113 

                 SPIN DOWN ORBITALS
  NO   OCC          E(Eh)            E(eV) 
   0   1.0000    -256.463902     -6978.7376 
   1   1.0000    -101.646551     -2765.9433 
   2   1.0000    -101.646546     -2765.9431 
   3   1.0000     -89.079143     -2423.9667 
   4   1.0000     -30.194146      -821.6245 
   5   1.0000     -26.027474      -708.2436 
   6   1.0000     -26.027200      -708.2361 
   7   1.0000     -26.025751      -708.1967 
   8   1.0000     -14.444556      -393.0564 
   9   1.0000     -14.443514      -393.0280 
  10   1.0000     -14.414841      -392.2478 
  11   1.0000     -14.414736      -392.2449 
  12   1.0000     -14.403514      -391.9395 
  13   1.0000     -10.327808      -281.0339 
  14   1.0000     -10.327689      -281.0307 
  15   1.0000     -10.306808      -280.4625 
  16   1.0000     -10.306774      -280.4616 
  17   1.0000     -10.283717      -279.8342 
  18   1.0000     -10.283676      -279.8331 
  19   1.0000     -10.259848      -279.1846 
  20   1.0000     -10.259388      -279.1721 
  21   1.0000     -10.252597      -278.9873 
  22   1.0000     -10.252165      -278.9756 
  23   1.0000     -10.250542      -278.9314 
  24   1.0000     -10.250151      -278.9208 
  25   1.0000      -9.473372      -257.7836 
  26   1.0000      -9.473361      -257.7833 
  27   1.0000      -8.052042      -219.1072 
  28   1.0000      -7.202747      -195.9967 
  29   1.0000      -7.202744      -195.9966 
  30   1.0000      -7.200857      -195.9453 
  31   1.0000      -7.200855      -195.9452 
  32   1.0000      -7.200699      -195.9410 
  33   1.0000      -7.200698      -195.9409 
  34   1.0000      -5.991130      -163.0269 
  35   1.0000      -5.984581      -162.8487 
  36   1.0000      -5.978849      -162.6927 
  37   1.0000      -3.487767       -94.9070 
  38   1.0000      -2.233566       -60.7784 
  39   1.0000      -2.231268       -60.7159 
  40   1.0000      -2.231002       -60.7087 
  41   1.0000      -1.050081       -28.5741 
  42   1.0000      -1.023999       -27.8644 
  43   1.0000      -1.013342       -27.5744 
  44   1.0000      -0.953965       -25.9587 
  45   1.0000      -0.921787       -25.0831 
  46   1.0000      -0.875260       -23.8170 
  47   1.0000      -0.873109       -23.7585 
  48   1.0000      -0.839883       -22.8544 
  49   1.0000      -0.838796       -22.8248 
  50   1.0000      -0.778064       -21.1722 
  51   1.0000      -0.771836       -21.0027 
  52   1.0000      -0.753599       -20.5065 
  53   1.0000      -0.743019       -20.2186 
  54   1.0000      -0.708760       -19.2863 
  55   1.0000      -0.707103       -19.2412 
  56   1.0000      -0.691345       -18.8125 
  57   1.0000      -0.662118       -18.0171 
  58   1.0000      -0.616802       -16.7840 
  59   1.0000      -0.587945       -15.9988 
  60   1.0000      -0.580419       -15.7940 
  61   1.0000      -0.558692       -15.2028 
  62   1.0000      -0.542221       -14.7546 
  63   1.0000      -0.539993       -14.6939 
  64   1.0000      -0.526272       -14.3206 
  65   1.0000      -0.513502       -13.9731 
  66   1.0000      -0.491969       -13.3871 
  67   1.0000      -0.487805       -13.2739 
  68   1.0000      -0.487480       -13.2650 
  69   1.0000      -0.470434       -12.8012 
  70   1.0000      -0.465012       -12.6536 
  71   1.0000      -0.450625       -12.2621 
  72   1.0000      -0.442209       -12.0331 
  73   1.0000      -0.436570       -11.8797 
  74   1.0000      -0.424084       -11.5399 
  75   1.0000      -0.389998       -10.6124 
  76   1.0000      -0.386190       -10.5088 
  77   1.0000      -0.375633       -10.2215 
  78   1.0000      -0.360621        -9.8130 
  79   1.0000      -0.356442        -9.6993 
  80   1.0000      -0.352986        -9.6052 
  81   1.0000      -0.348755        -9.4901 
  82   1.0000      -0.347061        -9.4440 
  83   1.0000      -0.344488        -9.3740 
  84   1.0000      -0.330754        -9.0003 
  85   1.0000      -0.312451        -8.5022 
  86   1.0000      -0.307140        -8.3577 
  87   1.0000      -0.303410        -8.2562 
  88   1.0000      -0.299671        -8.1545 
  89   1.0000      -0.297447        -8.0939 
  90   1.0000      -0.293380        -7.9833 
  91   1.0000      -0.286367        -7.7924 
  92   1.0000      -0.202321        -5.5054 
  93   0.0000      -0.112659        -3.0656 
  94   0.0000      -0.099075        -2.6960 
  95   0.0000      -0.098933        -2.6921 
  96   0.0000      -0.093050        -2.5320 
  97   0.0000      -0.083791        -2.2801 
  98   0.0000      -0.066333        -1.8050 
  99   0.0000      -0.053694        -1.4611 
 100   0.0000      -0.053312        -1.4507 
 101   0.0000      -0.051537        -1.4024 
 102   0.0000       0.009348         0.2544 
 103   0.0000       0.028763         0.7827 
*Only the first 10 virtual orbitals were printed.

                    ********************************
                    * MULLIKEN POPULATION ANALYSIS *
                    ********************************

--------------------------------------------
MULLIKEN ATOMIC CHARGES AND SPIN POPULATIONS
--------------------------------------------
   0 Fe:    0.359076    4.152640
   1 Cl:   -0.433534    0.227925
   2 S :    0.137382    0.071765
   3 N :   -0.186778    0.139431
   4 N :   -0.206875    0.070198
   5 N :   -0.210973    0.073793
   6 N :   -0.038445    0.047764
   7 N :   -0.045752    0.042944
   8 C :    0.132296   -0.033157
   9 C :    0.137970   -0.035281
  10 C :    0.212683    0.007358
  11 C :   -0.187395    0.000530
  12 H :    0.138062    0.000242
  13 C :   -0.065634   -0.003122
  14 H :    0.140101    0.000224
  15 C :   -0.068835   -0.000209
  16 H :    0.140676    0.001175
  17 C :   -0.055029   -0.000243
  18 H :    0.141947    0.001326
  19 C :    0.213058    0.007797
  20 C :   -0.185447    0.000018
  21 H :    0.137827    0.000154
  22 C :   -0.065878   -0.002761
  23 H :    0.140686    0.000216
  24 C :   -0.066755   -0.001016
  25 H :    0.140427    0.001180
  26 C :   -0.062370    0.000103
  27 H :    0.141046    0.001082
  28 Cl:   -0.433537    0.227925
Sum of atomic charges         :    0.0000000
Sum of atomic spin populations:    5.0000000

-----------------------------------------------------
MULLIKEN REDUCED ORBITAL CHARGES AND SPIN POPULATIONS
-----------------------------------------------------
CHARGE
  0 Fes       :     6.715804  s :     6.715804
      pz      :     4.299122  p :    12.840020
      px      :     4.310069
      py      :     4.230828
      dz2     :     1.221548  d :     6.083935
      dxz     :     1.130902
      dyz     :     1.139671
      dx2y2   :     1.243334
      dxy     :     1.348480
      f0      :     0.000257  f :     0.001166
      f+1     :     0.000195
      f-1     :     0.000112
      f+2     :     0.000098
      f-2     :     0.000088
      f+3     :     0.000252
      f-3     :     0.000163

  1 Cls       :     5.955741  s :     5.955741
      pz      :     3.875298  p :    11.454385
      px      :     3.822853
      py      :     3.756234
      dz2     :     0.003166  d :     0.021784
      dxz     :     0.001696
      dyz     :     0.003506
      dx2y2   :     0.005685
      dxy     :     0.007730
      f0      :     0.000130  f :     0.001624
      f+1     :     0.000112
      f-1     :     0.000231
      f+2     :     0.000065
      f-2     :     0.000210
      f+3     :     0.000547
      f-3     :     0.000329

  2 S s       :     5.858234  s :     5.858234
      pz      :     2.747528  p :     9.716798
      px      :     3.173820
      py      :     3.795451
      dz2     :     0.086456  d :     0.258377
      dxz     :     0.079680
      dyz     :     0.037418
      dx2y2   :     0.023808
      dxy     :     0.031014
      f0      :     0.006056  f :     0.029209
      f+1     :     0.008511
      f-1     :     0.002673
      f+2     :     0.004990
      f-2     :     0.003329
      f+3     :     0.001674
      f-3     :     0.001975

  3 N s       :     3.466672  s :     3.466672
      pz      :     0.998803  p :     3.653960
      px      :     1.186510
      py      :     1.468647
      dz2     :     0.019668  d :     0.062322
      dxz     :     0.019705
      dyz     :     0.009323
      dx2y2   :     0.006070
      dxy     :     0.007556
      f0      :     0.000826  f :     0.003824
      f+1     :     0.000884
      f-1     :     0.000598
      f+2     :     0.000531
      f-2     :     0.000308
      f+3     :     0.000338
      f-3     :     0.000339

  4 N s       :     3.557445  s :     3.557445
      pz      :     1.384425  p :     3.581998
      px      :     1.001346
      py      :     1.196226
      dz2     :     0.011151  d :     0.064005
      dxz     :     0.019638
      dyz     :     0.008221
      dx2y2   :     0.007976
      dxy     :     0.017019
      f0      :     0.000146  f :     0.003428
      f+1     :     0.000786
      f-1     :     0.000047
      f+2     :     0.000613
      f-2     :     0.000423
      f+3     :     0.000494
      f-3     :     0.000919

  5 N s       :     3.559821  s :     3.559821
      pz      :     1.196391  p :     3.583771
      px      :     1.188765
      py      :     1.198616
      dz2     :     0.015481  d :     0.063956
      dxz     :     0.016526
      dyz     :     0.009545
      dx2y2   :     0.006778
      dxy     :     0.015626
      f0      :     0.000657  f :     0.003425
      f+1     :     0.000484
      f-1     :     0.000319
      f+2     :     0.000557
      f-2     :     0.000184
      f+3     :     0.000346
      f-3     :     0.000878

  6 N s       :     3.505150  s :     3.505150
      pz      :     1.271122  p :     3.457535
      px      :     0.987476
      py      :     1.198937
      dz2     :     0.016133  d :     0.071687
      dxz     :     0.020090
      dyz     :     0.006756
      dx2y2   :     0.012284
      dxy     :     0.016423
      f0      :     0.000265  f :     0.004074
[...]
 19:    243.01   0.000000    0.00  0.000000  ( 0.000012 -0.000010  0.000010)
 20:    258.76   0.004468   22.58  0.005389  (-0.019098 -0.000006 -0.070882)
 21:    279.54   0.000239    1.21  0.000266  (-0.000070  0.016322  0.000013)
 22:    308.87   0.000543    2.74  0.000549  ( 0.022590  0.000018 -0.006183)
 23:    325.58   0.000384    1.94  0.000368  (-0.004968  0.000001 -0.018537)
 24:    372.21   0.018265   92.31  0.015314  (-0.119488 -0.000019  0.032191)
 25:    388.65   0.016630   84.04  0.013353  ( 0.000047 -0.115554 -0.000007)
 26:    416.78   0.000904    4.57  0.000677  (-0.025127  0.000017  0.006744)
 27:    432.64   0.000000    0.00  0.000000  (-0.000003 -0.000004  0.000004)
 28:    435.53   0.003077   15.55  0.002205  ( 0.000017  0.046954 -0.000004)
 29:    470.04   0.000000    0.00  0.000000  (-0.000003  0.000012 -0.000002)
 30:    498.03   0.000049    0.25  0.000031  (-0.000019 -0.005558  0.000002)
 31:    510.12   0.000016    0.08  0.000010  ( 0.000868 -0.000003  0.003050)
 32:    540.15   0.012399   62.66  0.007163  ( 0.081735  0.000014 -0.021974)
 33:    654.98   0.000040    0.20  0.000019  ( 0.000990 -0.000005  0.004255)
 34:    656.45   0.005592   28.26  0.002658  ( 0.013100  0.000005  0.049866)
 35:    657.79   0.000967    4.89  0.000459  (-0.020866  0.000003  0.004854)
 36:    667.32   0.000000    0.00  0.000000  (-0.000002 -0.000013  0.000005)
 37:    703.08   0.001466    7.41  0.000651  ( 0.024627 -0.000053 -0.006637)
 38:    710.36   0.010479   52.96  0.004604  ( 0.000012 -0.067850  0.000001)
 39:    753.19   0.000617    3.12  0.000256  ( 0.004149  0.000002  0.015438)
 40:    775.29   0.010737   54.26  0.004322  (-0.000005  0.065740 -0.000002)
 41:    775.47   0.000012    0.06  0.000005  (-0.000009  0.002240 -0.000011)
 42:    803.75   0.008090   40.88  0.003141  ( 0.054123  0.000019 -0.014546)
 43:    820.16   0.000000    0.00  0.000000  (-0.000001 -0.000182 -0.000013)
 44:    823.38   0.003747   18.94  0.001420  ( 0.000027 -0.037686 -0.000007)
 45:    871.16   0.000015    0.08  0.000006  (-0.000618  0.000003 -0.002274)
 46:    926.46   0.000257    1.30  0.000087  (-0.000013 -0.009313  0.000007)
 47:    926.83   0.000000    0.00  0.000000  (-0.000003 -0.000149 -0.000005)
 48:    998.28   0.000070    0.35  0.000022  ( 0.000025 -0.004680 -0.000005)
 49:    998.32   0.000007    0.03  0.000002  (-0.000008  0.001458 -0.000003)
 50:   1027.87   0.000037    0.19  0.000011  (-0.000018 -0.003362 -0.000002)
 51:   1027.97   0.000000    0.00  0.000000  (-0.000002 -0.000169  0.000007)
 52:   1042.29   0.000072    0.37  0.000022  (-0.004551  0.000001  0.000955)
 53:   1044.31   0.002420   12.23  0.000723  ( 0.006923 -0.000001  0.025985)
 54:   1054.06   0.002400   12.13  0.000711  (-0.025744  0.000003  0.006917)
 55:   1071.18   0.004347   21.97  0.001266  ( 0.034388 -0.000008 -0.009156)
 56:   1075.33   0.004176   21.10  0.001212  ( 0.008967  0.000002  0.033637)
 57:   1095.72   0.002852   14.41  0.000812  ( 0.027521 -0.000007 -0.007411)
 58:   1128.84   0.001726    8.72  0.000477  ( 0.005638  0.000001  0.021104)
 59:   1136.82   0.001503    7.60  0.000413  ( 0.019622 -0.000007 -0.005249)
 60:   1174.22   0.000549    2.77  0.000146  (-0.002971  0.000000 -0.011703)
 61:   1175.25   0.001943    9.82  0.000516  ( 0.021965  0.000003 -0.005797)
 62:   1213.78   0.014092   71.22  0.003623  ( 0.015604 -0.000000  0.058135)
 63:   1309.68   0.010915   55.16  0.002601  ( 0.013212 -0.000000  0.049256)
 64:   1316.50   0.000750    3.79  0.000178  (-0.012939  0.000003  0.003202)
 65:   1317.77   0.005048   25.51  0.001195  ( 0.008902  0.000001  0.033410)
 66:   1348.65   0.001018    5.15  0.000236  (-0.014768 -0.000008  0.004184)
 67:   1356.13   0.008613   43.53  0.001982  (-0.011604 -0.000000 -0.042980)
 68:   1376.08   0.001601    8.09  0.000363  (-0.018420  0.000005  0.004869)
 69:   1485.83   0.000332    1.68  0.000070  (-0.002114 -0.000001 -0.008081)
 70:   1487.94   0.005683   28.72  0.001192  ( 0.033350  0.000001 -0.008929)
 71:   1515.33   0.010947   55.32  0.002254  ( 0.012326  0.000000  0.045854)
 72:   1525.09   0.009365   47.32  0.001916  (-0.042278 -0.000008  0.011348)
 73:   1586.98   0.011777   59.52  0.002316  ( 0.012469  0.000000  0.046480)
 74:   1634.43   0.002352   11.89  0.000449  (-0.004930 -0.000000 -0.020611)
 75:   1636.05   0.002690   13.59  0.000513  (-0.022014 -0.000006  0.005334)
 76:   1662.58   0.000181    0.91  0.000034  (-0.005596  0.000003  0.001619)
 77:   1670.31   0.009029   45.63  0.001687  (-0.010673  0.000001 -0.039660)
 78:   1688.49   0.001450    7.33  0.000268  ( 0.015812 -0.000012 -0.004233)
 79:   3204.70   0.001213    6.13  0.000118  ( 0.005024 -0.000001  0.009636)
 80:   3204.76   0.000513    2.59  0.000050  ( 0.003047 -0.000001 -0.006381)
 81:   3211.96   0.000047    0.24  0.000005  (-0.002045  0.000000  0.000626)
 82:   3212.15   0.000065    0.33  0.000006  (-0.002422  0.000001  0.000692)
 83:   3230.40   0.000533    2.69  0.000051  ( 0.003592  0.000001  0.006209)
 84:   3230.46   0.000355    1.80  0.000034  ( 0.000974  0.000001 -0.005778)
 85:   3237.60   0.000250    1.26  0.000024  (-0.000615  0.000000 -0.004871)
 86:   3237.66   0.000365    1.84  0.000035  ( 0.005847  0.000001 -0.000981)

* The epsilon (eps) is given for a Dirac delta lineshape.
** The dipole moment derivative (T) already includes vibrational overlap.

The first frequency considered to be a vibration is 6
The total number of vibrations considered is 81


--------------------------
THERMOCHEMISTRY AT 298.15K
--------------------------

Temperature         ...   298.15 K
Pressure            ...     1.00 atm
Total Mass          ...   381.05 AMU
Quasi RRHO          ...     True
Cut-Off Frequency   ...     1.00 cm^-1

Throughout the following assumptions are being made:
  (1) The electronic state is orbitally nondegenerate
      but the spin degeneracy is treated
  (2) There are no thermally accessible electronically excited states
  (3) Hindered rotations indicated by low frequency modes are not
      treated as such but are treated as vibrations and this may
      cause some error
  (4) All equations used are the standard statistical mechanics
      equations for an ideal gas
  (5) All vibrations are strictly harmonic

freq.      18.27  E(vib)   ...       0.57 
freq.      44.41  E(vib)   ...       0.53 
freq.      60.28  E(vib)   ...       0.51 
freq.      85.55  E(vib)   ...       0.48 
freq.      87.01  E(vib)   ...       0.48 
freq.      89.81  E(vib)   ...       0.47 
freq.      98.52  E(vib)   ...       0.46 
freq.     121.51  E(vib)   ...       0.44 
freq.     137.87  E(vib)   ...       0.42 
freq.     158.74  E(vib)   ...       0.39 
freq.     190.06  E(vib)   ...       0.36 
freq.     206.83  E(vib)   ...       0.35 
freq.     225.18  E(vib)   ...       0.33 
freq.     243.01  E(vib)   ...       0.31 
freq.     258.76  E(vib)   ...       0.30 
freq.     279.54  E(vib)   ...       0.28 
freq.     308.87  E(vib)   ...       0.26 
freq.     325.58  E(vib)   ...       0.24 
freq.     372.21  E(vib)   ...       0.21 
freq.     388.65  E(vib)   ...       0.20 
freq.     416.78  E(vib)   ...       0.18 
freq.     432.64  E(vib)   ...       0.18 
freq.     435.53  E(vib)   ...       0.17 
freq.     470.04  E(vib)   ...       0.16 
freq.     498.03  E(vib)   ...       0.14 
freq.     510.12  E(vib)   ...       0.14 
freq.     540.15  E(vib)   ...       0.12 
freq.     654.98  E(vib)   ...       0.08 
freq.     656.45  E(vib)   ...       0.08 
freq.     657.79  E(vib)   ...       0.08 
freq.     667.32  E(vib)   ...       0.08 
freq.     703.08  E(vib)   ...       0.07 
freq.     710.36  E(vib)   ...       0.07 
freq.     753.19  E(vib)   ...       0.06 
freq.     775.29  E(vib)   ...       0.05 
freq.     775.47  E(vib)   ...       0.05 
freq.     803.75  E(vib)   ...       0.05 
freq.     820.16  E(vib)   ...       0.05 
freq.     823.38  E(vib)   ...       0.05 
freq.     871.16  E(vib)   ...       0.04 
freq.     926.46  E(vib)   ...       0.03 
freq.     926.83  E(vib)   ...       0.03 
freq.     998.28  E(vib)   ...       0.02 
freq.     998.32  E(vib)   ...       0.02 
freq.    1027.87  E(vib)   ...       0.02 
freq.    1027.97  E(vib)   ...       0.02 
freq.    1042.29  E(vib)   ...       0.02 
freq.    1044.31  E(vib)   ...       0.02 
freq.    1054.06  E(vib)   ...       0.02 
freq.    1071.18  E(vib)   ...       0.02 
freq.    1075.33  E(vib)   ...       0.02 
freq.    1095.72  E(vib)   ...       0.02 
freq.    1128.84  E(vib)   ...       0.01 
freq.    1136.82  E(vib)   ...       0.01 
freq.    1174.22  E(vib)   ...       0.01 
freq.    1175.25  E(vib)   ...       0.01 
freq.    1213.78  E(vib)   ...       0.01 
freq.    1309.68  E(vib)   ...       0.01 
freq.    1316.50  E(vib)   ...       0.01 
freq.    1317.77  E(vib)   ...       0.01 
freq.    1348.65  E(vib)   ...       0.01 
freq.    1356.13  E(vib)   ...       0.01 
freq.    1376.08  E(vib)   ...       0.01 
freq.    1485.83  E(vib)   ...       0.00 
freq.    1487.94  E(vib)   ...       0.00 
freq.    1515.33  E(vib)   ...       0.00 
freq.    1525.09  E(vib)   ...       0.00 
freq.    1586.98  E(vib)   ...       0.00 
freq.    1634.43  E(vib)   ...       0.00 
freq.    1636.05  E(vib)   ...       0.00 
freq.    1662.58  E(vib)   ...       0.00 
freq.    1670.31  E(vib)   ...       0.00 
freq.    1688.49  E(vib)   ...       0.00 
freq.    3204.70  E(vib)   ...       0.00 
freq.    3204.76  E(vib)   ...       0.00 
freq.    3211.96  E(vib)   ...       0.00 
freq.    3212.15  E(vib)   ...       0.00 
freq.    3230.40  E(vib)   ...       0.00 
freq.    3230.46  E(vib)   ...       0.00 
freq.    3237.60  E(vib)   ...       0.00 
freq.    3237.66  E(vib)   ...       0.00 

------------
INNER ENERGY
------------

The inner energy is: U= E(el) + E(ZPE) + E(vib) + E(rot) + E(trans)
    E(el)   - is the total energy from the electronic structure calculation
              = E(kin-el) + E(nuc-el) + E(el-el) + E(nuc-nuc)
    E(ZPE)  - the the zero temperature vibrational energy from the frequency calculation
    E(vib)  - the the finite temperature correction to E(ZPE) due to population
              of excited vibrational states
    E(rot)  - is the rotational thermal energy
    E(trans)- is the translational thermal energy

Summary of contributions to the inner energy U:
Electronic energy                ...  -3317.12207506 Eh
Zero point energy                ...      0.19246283 Eh     120.77 kcal/mol
Thermal vibrational correction   ...      0.01571069 Eh       9.86 kcal/mol
Thermal rotational correction    ...      0.00141627 Eh       0.89 kcal/mol
Thermal translational correction ...      0.00141627 Eh       0.89 kcal/mol
-----------------------------------------------------------------------
Total thermal energy                  -3316.91106899 Eh


Summary of corrections to the electronic energy:
(perhaps to be used in another calculation)
Total thermal correction                  0.01854324 Eh      11.64 kcal/mol
Non-thermal (ZPE) correction              0.19246283 Eh     120.77 kcal/mol
-----------------------------------------------------------------------
Total correction                          0.21100607 Eh     132.41 kcal/mol


--------
ENTHALPY
--------

The enthalpy is H = U + kB*T
                kB is Boltzmann's constant
Total thermal energy              ...  -3316.91106899 Eh 
Thermal Enthalpy correction       ...      0.00094421 Eh       0.59 kcal/mol
-----------------------------------------------------------------------
Total Enthalpy                    ...  -3316.91012479 Eh


Note: Only C1 symmetry has been detected, increase convergence thresholds 
      if your molecule has a higher symmetry. Symmetry factor of 1.0 is   
      used for the rotational entropy correction. 
 

Note: Rotational entropy computed according to Herzberg 
Infrared and Raman Spectra, Chapter V,1, Van Nostrand Reinhold, 1945 
Point Group:  C1, Symmetry Number:   1  
Rotational constants in cm-1:     0.010306     0.007289     0.004875 

Vibrational entropy computed according to the QRRHO of S. Grimme
Chem.Eur.J. 2012 18 9955 using a reference frequency of 100.0 cm-1


-------
ENTROPY
-------

The entropy contributions are T*S = T*(S(el)+S(vib)+S(rot)+S(trans))
     S(el)   - electronic entropy
     S(vib)  - vibrational entropy
     S(rot)  - rotational entropy
     S(trans)- translational entropy
The entropies will be listed as multiplied by the temperature to get
units of energy

Electronic entropy                ...      0.00169175 Eh      1.06 kcal/mol
Vibrational entropy               ...      0.02807738 Eh     17.62 kcal/mol
Rotational entropy                ...      0.01650715 Eh     10.36 kcal/mol
Translational entropy             ...      0.02076586 Eh     13.03 kcal/mol
-----------------------------------------------------------------------
Final entropy term                ...      0.06704214 Eh     42.07 kcal/mol

In case the symmetry of your molecule has not been determined correctly
or in case you have a reason to use a different symmetry number we print 
out the resulting rotational entropy values for sn=1,12:

 non-linear molecules -----------------------------------
|  sn= 1 | S(rot)=       0.01650715 Eh     10.36 kcal/mol|
|  sn= 2 | S(rot)=       0.01585269 Eh      9.95 kcal/mol|
|  sn= 3 | S(rot)=       0.01546986 Eh      9.71 kcal/mol|
|  sn= 4 | S(rot)=       0.01519824 Eh      9.54 kcal/mol|
|  sn= 5 | S(rot)=       0.01498755 Eh      9.40 kcal/mol|
|  sn= 6 | S(rot)=       0.01481540 Eh      9.30 kcal/mol|
|  sn= 7 | S(rot)=       0.01466986 Eh      9.21 kcal/mol|
|  sn= 8 | S(rot)=       0.01454378 Eh      9.13 kcal/mol|
|  sn= 9 | S(rot)=       0.01443257 Eh      9.06 kcal/mol|
|  sn=10 | S(rot)=       0.01433309 Eh      8.99 kcal/mol|
|  sn=11 | S(rot)=       0.01424310 Eh      8.94 kcal/mol|
|  sn=12 | S(rot)=       0.01416095 Eh      8.89 kcal/mol|
 linear molecules ---------------------------------------
|  Dinfh | S(rot)=       0.01035220 Eh      6.50 kcal/mol|
|  Cinfv | S(rot)=       0.01100666 Eh      6.91 kcal/mol|
 --------------------------------------------------------


-------------------
GIBBS FREE ENERGY
-------------------

The Gibbs free energy is G = H - T*S

Total enthalpy                    ...  -3316.91012479 Eh 
Total entropy correction          ...     -0.06704214 Eh    -42.07 kcal/mol
-----------------------------------------------------------------------
Final Gibbs free energy         ...  -3316.97716693 Eh

For completeness - the Gibbs free energy minus the electronic energy
G-E(el)                           ...      0.14490814 Eh     90.93 kcal/mol


Maximum memory used throughout the entire PROP-calculation: 621.9 MB

--------------------------------
SUGGESTED CITATIONS FOR THIS RUN
--------------------------------

Below you find a list of papers that are relevant to this ORCA run
We neither can nor want to force you to cite these papers, but we appreciate if you do
You receive ORCA, which is the product of decades of hard work by many enthusiastic individuals, for free
The only thing we kindly ask in return is that you cite our papers,
We deeply appreciate it, if you show your appreciation for ORCA by not just citing the generic ORCA reference.

Please note that relegating all ORCA citations to the supporting information does *not* help us.
SI sections are not indexed - citations you put there will not count into any citation statistics
But we need these citations in order to attract the funding resources that allow us to do what we are doing

Therefore, if you are a happy ORCA user, please consider citing a few of the papers listed below in the main body of your paper

In addition to the list printed below, the program has created the file LUJNOV-S6.bibtex that contains the list in bibtex format
You can import this file easily into all common literature databanks and citation aid programs


List of essential papers. We consider these as the minimum necessary citations

  1. Neese,F.
     Software update: the ORCA program system, version 5.0
     WIRES Comput. Molec. Sci., 2022 12(1)e1606
     doi.org/10.1002/wcms.1606

List of papers to cite with high priority. The work reported in these papers was absolutely
necessary for this run to complete.
Our perspective: the developers of density functionals and basis sets usually get cited in chemistry papers
Good! But without the algorithms to do something with them, the functionals or basis sets would not do anything.
Hence, in our opinion, the algorithm design and method developments papers are equally worthy of getting cited

  1. Neese,F.
     An improvement of the resolution of the identity approximation for the formation of the Coulomb matrix
     J. Comp. Chem., 2003 24(14)1740-1747
     doi.org/10.1002/jcc.10318
  2. Neese,F.; Wennmohs,F.; Hansen,A.; Becker,U.
     Efficient, approximate and parallel Hartree-Fock and hybrid DFT calculations. A 'chain-of-spheres' algorithm for the Hartree-Fock exchange
     Chem. Phys., 2009 356(1-3)98-109
     doi.org/10.1016/j.chemphys.2008.10.036
  3. Bykov,D.; Petrenko,T.; Izsak,R.; Kossmann,S.; Becker,U.; Valeev,E.; Neese,F.
     Efficient implementation of the analytic second derivatives of Hartree-Fock and hybrid DFT energies: a detailed analysis of different approximations
     Molec. Phys., 2015 113 1961-1977
     doi.org/10.1080/00268976.2015.1025114
  4. Helmich-Paris,B.; de Souza,B.; Neese,F.; Izsák,R.
     An improved chain of spheres for exchange algorithm
     J. Chem. Phys., 2021 155 104109
     doi.org/doi: 10.1063/5.0058766.
  5. Neese,F.
     The SHARK Integral Generation and Digestion System
     J. Comp. Chem., 2022  1-16
     doi.org/10.1002/jcc.26942

List of suggested additional citations. These are papers that are important in the 'surrounding' of 
of this run, or papers that preceded the highly important papers. If you like your results we are grateful for a citation.

  1. Izsak,R.; Neese,F.
     An overlap fitted chain of spheres exchange method
     J. Chem. Phys., 2011 135 144105
     doi.org/10.1063/1.3646921
  2. Izsak,R.; Hansen,A.; Neese,F.
     The resolution of identity and chain of spheres approximations for the LPNO-CCSD singles Fock term
     Molec. Phys., 2012 110 2413-2417
     doi.org/10.1080/00268976.2012.687466
  3. Neese,F.
     The ORCA program system
     WIRES Comput. Molec. Sci., 2012 2(1)73-78
     doi.org/10.1002/wcms.81
  4. Izsak,R.; Neese,F.; Klopper,W.
     Robust fitting techniques in the chain of spheres approximation to the Fock exchange: The role of the complementary space
     J. Chem. Phys., 2013 139 
     doi.org/10.1063/1.4819264
  5. Neese,F.
     Software update: the ORCA program system, version 4.0
     WIRES Comput. Molec. Sci., 2018 8(1)1-6
     doi.org/10.1002/wcms.1327
  6. Neese,F.; Wennmohs,F.; Becker,U.; Riplinger,C.
     The ORCA quantum chemistry program package
     J. Chem. Phys., 2020 152 Art. No. L224108
     doi.org/10.1063/5.0004608

List of optional additional citations

  1. Neese,F.
     Approximate second-order SCF convergence for spin unrestricted wavefunctions
     Chem. Phys. Lett., 2000 325(1-3)93-98
     doi.org/10.1016/s0009-2614(00)00662-x

Timings for individual modules:

Sum of individual times          ...     4591.605 sec (=  76.527 min)
Startup calculation              ...       87.159 sec (=   1.453 min)   1.9 %
SCF iterations                   ...     1704.993 sec (=  28.417 min)  37.1 %
Property integrals               ...      628.788 sec (=  10.480 min)  13.7 %
SCF Response                     ...     1267.768 sec (=  21.129 min)  27.6 %
Property calculations            ...      494.037 sec (=   8.234 min)  10.8 %
SCF Gradient evaluation          ...      408.681 sec (=   6.811 min)   8.9 %
Geometry relaxation              ...        0.179 sec (=   0.003 min)   0.0 %
                             ****ORCA TERMINATED NORMALLY****
TOTAL RUN TIME: 0 days 1 hours 16 minutes 56 seconds 473 msec
