
                                 *****************
                                 * O   R   C   A *
                                 *****************

                                            #,                                       
                                            ###                                      
                                            ####                                     
                                            #####                                    
                                            ######                                   
                                           ########,                                 
                                     ,,################,,,,,                         
                               ,,#################################,,                 
                          ,,##########################################,,             
                       ,#########################################, ''#####,          
                    ,#############################################,,   '####,        
                  ,##################################################,,,,####,       
                ,###########''''           ''''###############################       
              ,#####''   ,,,,##########,,,,          '''####'''          '####       
            ,##' ,,,,###########################,,,                        '##       
           ' ,,###''''                  '''############,,,                           
         ,,##''                                '''############,,,,        ,,,,,,###''
      ,#''                                            '''#######################'''  
     '                                                          ''''####''''         
             ,#######,   #######,   ,#######,      ##                                
            ,#'     '#,  ##    ##  ,#'     '#,    #''#        ,####,   ,####,        
            ##       ##  ##   ,#'  ##            #'  '#       #'       #'  '#        
            ##       ##  #######   ##           ,######,      #####,   #    #        
            '#,     ,#'  ##    ##  '#,     ,#' ,#      #,     #,   #   #,  ,#        
             '#######'   ##     ##  '#######'  #'      '#     '####' # '####'        



                #########################################################
                #                        -***-                          #
                #          Department of theory and spectroscopy        #
                #                                                       #
                #                      Frank Neese                      #
                #                                                       #
                #     Directorship, Architecture, Infrastructure        #
                #                    SHARK, DRIVERS                     #
                #        Core code/Algorithms in most modules           #
                #                                                       #
                #        Max Planck Institute fuer Kohlenforschung      #
                #                Kaiser Wilhelm Platz 1                 #
                #                 D-45470 Muelheim/Ruhr                 #
                #                      Germany                          #
                #                                                       #
                #                  All rights reserved                  #
                #                        -***-                          #
                #########################################################


                         Program Version 6.0.1  -  RELEASE   -


 With contributions from (in alphabetic order):
[Max-Planck-Institut fuer Kohlenforschung]                               
  Daniel Aravena         : Magnetic Suceptibility                        
  Michael Atanasov       : Ab Initio Ligand Field Theory (pilot matlab implementation)
  Alexander A. Auer      : GIAO ZORA, VPT2 properties, NMR spectrum      
  Ute Becker             : All parallelization in ORCA, NUMFREQ, NUMCALC 
  Giovanni Bistoni       : ED, misc. LED, open-shell LED, HFLD           
  Martin Brehm           : Molecular dynamics                            
  Dmytro Bykov           : pre 5.0 version of the SCF Hessian            
  Marcos Casanova-Páez   : Triplet and SCS-CIS(D). UHF-(DLPNO)-IP/EA/STEOM-CCSD. UHF-CVS-IP/STEOM-CCSD   
  Vijay G. Chilkuri      : MRCI spin determinant printing, contributions to CSF-ICE 
  Pauline Colinet        : FMM embedding                                 
  Dipayan Datta          : RHF DLPNO-CCSD density                        
  Achintya Kumar Dutta   : EOM-CC, STEOM-CC                              
  Nicolas Foglia         : Exact transition moments, OPA infrastructure, MCD improvements    
  Dmitry Ganyushin       : Spin-Orbit,Spin-Spin,Magnetic field MRCI      
  Miquel Garcia-Rates    : C-PCM and meta-GGA Hessian, CCSD/C-PCM, Gaussian charge scheme 
  Tiago L. C. Gouveia    : GS-ROHF, GS-ROCIS                             
  Yang Guo               : DLPNO-NEVPT2, F12-NEVPT2, CIM, IAO-localization        
  Andreas Hansen         : Spin unrestricted coupled pair/coupled cluster methods 
  Ingolf Harden          : AUTO-CI MPn and infrastructure                
  Benjamin Helmich-Paris : MC-RPA, TRAH-(SCF,CASSCF), AVAS, COSX integrals, SCF dyn. polar. 
  Lee Huntington         : MR-EOM, pCC                                   
  Robert Izsak           : Overlap fitted RIJCOSX, COSX-SCS-MP3, EOM     
  Riya Kayal             : Wick's Theorem for AUTO-CI, AUTO-CI UHF-CCSDT 
  Emily Kempfer          : AUTO-CI, RHF CISDT and CCSDT                  
  Christian Kollmar      : KDIIS, OOCD, Brueckner-CCSD(T), CCSD density, CASPT2, CASPT2-K, improved NEVPT2 
  Axel Koslowski         : Symmetry handling                             
  Simone Kossmann        : meta-GGA functionals, TD-DFT gradient, OOMP2, (MP2 Hessian; deprecated post 5.0) 
  Lucas Lang             : DCDCAS                                        
  Marvin Lechner         : AUTO-CI (C++ implementation), FIC-MRCC        
  Spencer Leger          : CASSCF response                               
  Dagmar Lenk            : GEPOL surface, SMD, ORCA-2-JSON               
  Dimitrios Liakos       : Extrapolation schemes; Compound Job, initial MDCI parallelization 
  Dimitrios Manganas     : Further ROCIS development; embedding schemes. LFT, Crystal Embedding 
  Dimitrios Pantazis     : SARC Basis sets                               
  Anastasios Papadopoulos: AUTO-CI, single reference methods and gradients 
  Taras Petrenko         : pre 6.0 DFT Hessian and TD-DFT gradient, (ASA, deprecated), ECA, 1-Electron XAS/XES, NRVS 
  Peter Pinski           : DLPNO-MP2, DLPNO-MP2 Gradient                 
  Christoph Reimann      : Effective Core Potentials                     
  Marius Retegan         : Local ZFS, SOC                                
  Christoph Riplinger    : Optimizer, TS searches, QM/MM, DLPNO-CCSD(T), (RO)-DLPNO pert. Triples 
  Michael Roemelt        : Original ROCIS implementation                 
  Masaaki Saitow         : Open-shell DLPNO-CCSD energy and density      
  Barbara Sandhoefer     : DKH picture change effects                    
  Kantharuban Sivalingam : CASSCF convergence/infrastructure, NEVPT2 and variants, FIC-MRCI 
  Bernardo de Souza      : ESD, SOC TD-DFT                               
  Georgi L. Stoychev     : AutoAux, RI-MP2 NMR, DLPNO-MP2 response, X2C  
  Van Anh Tran           : RI-MP2 g-tensors                              
  Willem Van den Heuvel  : Paramagnetic NMR                              
  Zikuan Wang            : NOTCH, Electric field optimization            
  Frank Wennmohs         : Technical directorship and infrastructure     
  Hang Xu                : AUTO-CI-Response properties                   
                                                                         
[FACCTs GmbH]                                                            
  Markus Bursch, Miquel Garcia-Rates, Christoph Riplinger, Bernardo de Souza, Georgi L. Stoychev 
                                                                 
  APM, Basis sets (HGBS, AHGBS, def-TZVP (Ac-Lr), def2-XVPD (La-Lu)), CI-OPT, improved COSX, DLPNO-Multilevel,           
  DOCKER, DRACO, updates on ESD, GOAT, IRC, LR-CPCM, MBIS, meta-GGA TD-DFT gradient, ML-optimized integration grids, 
  MM, NACMEs, nearIR, NEB, NEB-TS, NL-DFT gradient (VV10), 2- and 3-layer-ONIOM, interface openCOSMO-RS, QMMM,   
  Crystal-QMMM, SF, symmetry and pop. for TD-DFT, r2SCAN hybrids, SOLVATOR                                   
                                                                         
[Other institutions]                                                     
  V. Asgeirsson          : NEB                                           
  Christoph Bannwarth    : sTDA-DFT, sTD-DFT, PBEh-3c, B97-3c, D3        
  Sebastian Ehlert       : rSCAN, r2SCAN, r2SCAN-3c, D4, dhf basis sets  
  Marvin Friede          : D4 for Fr, Ra, Ac-Lr                          
  Lars Goerigk           : TD-DFT with DH, B97 family of functionals     
  Stefan Grimme          : VdW corrections, initial TS optimization, DFT functionals, gCP, sTDA/sTD-DF 
  Waldemar Hujo          : DFT-NL                                        
  H. Jonsson             : NEB                                           
  Holger Kruse           : gCP                                           
  Marcel Mueller         : wB97X-3c, vDZP basis set                      
  Hagen Neugebauer       : wr2SCAN                                       
  Tobias Risthaus        : range-separated hybrid DFT                    
  Lukas Wittmann         : regularized MP2, r2SCAN double-hybrids, wr2SCAN        
                                                                         
We gratefully acknowledge several colleagues who have allowed us to      
interface, adapt or use parts of their codes:                            
  Ed Valeev, F. Pavosevic, A. Kumar             : LibInt (2-el integral package), F12 methods 
  Garnet Chan, S. Sharma, J. Yang, R. Olivares  : DMRG                   
  Ulf Ekstrom                                   : XCFun DFT Library      
  Mihaly Kallay                                 : mrcc  (arbitrary order and MRCC methods)
  Frank Weinhold                                : gennbo (NPA and NBO analysis)           
  Simon Mueller                                 : openCOSMO-RS                            
  Christopher J. Cramer and Donald G. Truhlar   : smd solvation model                     
  S Lehtola, MJT Oliveira, MAL Marques          : LibXC Library                           
  Liviu Ungur et al                             : ANISO software                          


 Your calculation uses the libint2 library for the computation of 2-el integrals
 For citations please refer to: http://libint.valeyev.net

 Your ORCA version has been built with support for libXC version: 6.2.2
 For citations please refer to: https://libxc.gitlab.io

 This ORCA versions uses:
   CBLAS   interface :  Fast vector & matrix operations
   LAPACKE interface :  Fast linear algebra routines
   SCALAPACK package :  Parallel linear algebra routines
   Shared memory     :  Shared parallel matrices
   BLAS/LAPACK       :  OpenBLAS 0.3.27  USE64BITINT DYNAMIC_ARCH NO_AFFINITY Cooperlake SINGLE_THREADED
        Core in use  :  Cooperlake
   Copyright (c) 2011-2014, The OpenBLAS Project


NOTE: MaxCore=3600 MB was set to SCF,MP2,MDCI,CIPSI,MRCI and CIS
      => If you want to overwrite this, your respective input block should be placed after the MaxCore statement
Warning: RI is on but no J-basis has been assigned. Assigning Def2/J (nothing to worry about!)
================================================================================

----- Orbital basis set information -----
Your calculation utilizes the basis: def2-TZVP
   F. Weigend and R. Ahlrichs, Phys. Chem. Chem. Phys. 7, 3297 (2005).

----- AuxJ basis set information -----
Your calculation utilizes the auxiliary basis: def2/J
   F. Weigend, Phys. Chem. Chem. Phys. 8, 1057 (2006).

================================================================================
                                        WARNINGS
                       Please study these warnings very carefully!
================================================================================


WARNING: your system is open-shell and RHF/RKS was chosen
  ===> : WILL SWITCH to UHF/UKS


WARNING: Geometry Optimization
  ===> : Switching off AutoStart
         For restart on a previous wavefunction, please use MOREAD

================================================================================
                                       INPUT FILE
================================================================================
NAME = MOPDUQ-S6.inp
|  1> ! PBE0 def2-TZVP  Opt Freq DEFGRID3
|  2> 
|  3> %maxcore 3600
|  4> 
|  5> %pal
|  6>     nprocs 16
|  7> end
|  8> 
|  9> *xyz 0 6
| 10> Fe 7.4411 4.296 4.0109
| 11> O 5.8568 3.677 4.9442
| 12> O 4.062 5.5587 1.65
| 13> N 6.0272 5.1218 2.646
| 14> C 4.5598 3.5288 4.6515
| 15> C 3.7324 2.8225 5.5302
| 16> C 2.4206 2.6382 5.251
| 17> C 1.8491 3.1718 4.1256
| 18> C 2.6163 3.8948 3.2705
| 19> C 3.9757 4.0997 3.5241
| 20> C 4.7295 4.9259 2.6287
| 21> C 6.3375 6.0716 1.559
| 22> C 5.0338 6.2495 0.8276
| 23> H 6.6567 6.9338 1.9254
| 24> H 4.8054 7.2097 0.7424
| 25> H 5.0792 5.8487 -0.0769
| 26> H 4.097 2.4668 6.3328
| 27> H 1.8841 2.1291 5.8479
| 28> H 0.9257 3.0365 3.945
| 29> H 2.2249 4.266 2.4891
| 30> H 7.031 5.703 0.9569
| 31> O 8.7692 3.2336 4.9442
| 32> C 9.5461 2.1845 4.6515
| 33> C 10.5714 1.8211 5.5302
| 34> C 11.387 0.7772 5.251
| 35> C 11.2106 0.0155 4.1256
| 36> C 10.2009 0.3183 3.2705
| 37> C 9.3437 1.3932 3.5241
| 38> C 8.2513 1.6329 2.6287
| 39> O 8.037 0.7385 1.65
| 40> C 6.9529 1.2347 0.8276
| 41> C 6.4551 2.4526 1.559
| 42> N 7.4328 2.6588 2.646
| 43> O 7.697 5.9775 4.9442
| 44> C 8.2171 7.1749 4.6515
| 45> C 8.0192 8.2446 5.5302
| 46> C 8.5155 9.4728 5.251
| 47> C 9.2633 9.7009 4.1256
| 48> C 9.5059 8.675 3.2705
| 49> C 9.0036 7.3952 3.5241
| 50> C 9.3422 6.3294 2.6287
| 51> O 10.2239 6.591 1.65
| 52> C 10.3363 5.404 0.8276
| 53> C 9.5304 4.3639 1.559
| 54> N 8.863 5.1076 2.646
| 55> H 10.1175 3.6564 1.9254
| 56> H 8.8645 3.9477 0.9569
| 57> H 11.282 5.1218 0.7424
| 58> H 9.9665 5.5651 -0.0769
| 59> H 10.023 8.8284 2.4891
| 60> H 9.6078 10.5683 3.945
| 61> H 8.3428 10.192 5.8479
| 62> H 7.5288 8.1067 6.3328
| 63> H 5.5488 2.298 1.9254
| 64> H 6.4275 3.2375 0.9569
| 65> H 6.2356 0.5568 0.7424
| 66> H 7.2773 1.4744 -0.0769
| 67> H 10.0751 -0.2062 2.4891
| 68> H 11.7895 -0.7166 3.945
| 69> H 12.0961 0.5671 5.8479
| 70> H 10.6972 2.3147 6.3328
| 71> *
| 72> 
| 73>                          ****END OF INPUT****
================================================================================

                       *****************************
                       * Geometry Optimization Run *
                       *****************************

Geometry optimization settings:
Update method            Update   .... BFGS
Choice of coordinates    CoordSys .... (2022) Redundant Internals
Initial Hessian          InHess   .... Almloef's Model
Max. no of cycles        MaxIter  .... 183

Convergence Tolerances:
Energy Change            TolE     ....  5.0000e-06 Eh
Max. Gradient            TolMAXG  ....  3.0000e-04 Eh/bohr
RMS Gradient             TolRMSG  ....  1.0000e-04 Eh/bohr
Max. Displacement        TolMAXD  ....  4.0000e-03 bohr
RMS Displacement         TolRMSD  ....  2.0000e-03 bohr
Strict Convergence                .... False

------------------------------------------------------------------------------
                        ORCA OPTIMIZATION COORDINATE SETUP
------------------------------------------------------------------------------

The optimization will be done in redundant internal coordinates (2022)
Making redundant internal coordinates   ...  (2022 redundants) done
Evaluating the initial hessian          ...  (Almloef) done
Evaluating the coordinates              ...  done
Calculating the B-matrix                .... done
Calculating the G-matrix                .... done
Diagonalizing the G-matrix              .... done
Small eigenvalue found = 1.017e-02
Small eigenvalue found = 1.101e-02
Small eigenvalue found = 1.409e-02
Small eigenvalue found = 1.587e-02
Small eigenvalue found = 1.716e-02
Small eigenvalue found = 1.734e-02
Small eigenvalue found = 2.740e-02
The first mode is                       ....  207
The number of degrees of freedom        ....  177

    -----------------------------------------------------------------
                    Redundant Internal Coordinates


    -----------------------------------------------------------------
         Definition                    Initial Value    Approx d2E/dq
    -----------------------------------------------------------------
      1. B(O   1,Fe  0)                  1.9402         0.750338   
      2. B(N   3,Fe  0)                  2.1317         0.371292   
      3. B(C   4,O   1)                  1.3379         0.677760   
      4. B(C   5,C   4)                  1.3984         0.605778   
      5. B(C   6,C   5)                  1.3538         0.713698   
      6. B(C   7,C   6)                  1.3704         0.671560   
      7. B(C   8,C   7)                  1.3574         0.704300   
      8. B(C   9,C   4)                  1.3922         0.619841   
      9. B(C   9,C   8)                  1.3980         0.606812   
     10. B(C  10,C   9)                  1.4327         0.534135   
     11. B(C  10,N   3)                  1.3125         0.743865   
     12. B(C  10,O   2)                  1.3431         0.664881   
     13. B(C  11,N   3)                  1.4765         0.407298   
     14. B(C  12,O   2)                  1.4484         0.451501   
     15. B(C  12,C  11)                  1.5054         0.408908   
     16. B(H  13,C  11)                  0.9897         0.520510   
     17. B(H  14,C  12)                  0.9907         0.518695   
     18. B(H  15,C  12)                  0.9904         0.519260   
     19. B(H  16,C   5)                  0.9506         0.600955   
     20. B(H  17,C   6)                  0.9504         0.601324   
     21. B(H  18,C   7)                  0.9506         0.600993   
     22. B(H  19,C   8)                  0.9495         0.603345   
     23. B(H  20,C  11)                  0.9896         0.520697   
     24. B(O  21,Fe  0)                  1.9400         0.750781   
     25. B(C  22,O  21)                  1.3379         0.677748   
     26. B(C  23,C  22)                  1.3984         0.605898   
     27. B(C  24,C  23)                  1.3538         0.713558   
     28. B(C  25,C  24)                  1.3703         0.671593   
     29. B(C  26,C  25)                  1.3573         0.704437   
     30. B(C  27,C  26)                  1.3980         0.606613   
     31. B(C  27,C  22)                  1.3922         0.619823   
     32. B(C  28,C  27)                  1.4327         0.534153   
     33. B(O  29,C  28)                  1.3430         0.664987   
     34. B(C  30,O  29)                  1.4484         0.451565   
     35. B(C  31,C  30)                  1.5053         0.409006   
     36. B(N  32,C  31)                  1.4765         0.407293   
     37. B(N  32,C  28)                  1.3125         0.743854   
     38. B(N  32,Fe  0)                  2.1315         0.371473   
     39. B(O  33,Fe  0)                  1.9401         0.750509   
     40. B(C  34,O  33)                  1.3379         0.677668   
     41. B(C  35,C  34)                  1.3984         0.605800   
     42. B(C  36,C  35)                  1.3538         0.713695   
     43. B(C  37,C  36)                  1.3703         0.671656   
     44. B(C  38,C  37)                  1.3574         0.704300   
     45. B(C  39,C  38)                  1.3980         0.606620   
     46. B(C  39,C  34)                  1.3922         0.619829   
     47. B(C  40,C  39)                  1.4326         0.534300   
     48. B(O  41,C  40)                  1.3430         0.665029   
     49. B(C  42,O  41)                  1.4484         0.451499   
     50. B(C  43,C  42)                  1.5054         0.408908   
     51. B(N  44,C  43)                  1.4765         0.407244   
     52. B(N  44,C  40)                  1.3125         0.743839   
     53. B(N  44,Fe  0)                  2.1315         0.371473   
     54. B(H  45,C  43)                  0.9897         0.520544   
     55. B(H  46,C  43)                  0.9895         0.520855   
     56. B(H  47,C  42)                  0.9906         0.518854   
     57. B(H  48,C  42)                  0.9904         0.519257   
     58. B(H  49,C  38)                  0.9495         0.603415   
     59. B(H  50,C  37)                  0.9506         0.600889   
     60. B(H  51,C  36)                  0.9505         0.601256   
     61. B(H  52,C  35)                  0.9506         0.600894   
     62. B(H  53,C  31)                  0.9897         0.520507   
     63. B(H  54,C  31)                  0.9896         0.520676   
     64. B(H  55,C  30)                  0.9906         0.518774   
     65. B(H  56,C  30)                  0.9904         0.519270   
     66. B(H  57,C  26)                  0.9495         0.603412   
     67. B(H  58,C  25)                  0.9506         0.600851   
     68. B(H  59,C  24)                  0.9504         0.601383   
     69. B(H  60,C  23)                  0.9506         0.600942   
     70. A(O   1,Fe  0,N  44)          166.9651         0.511995   
     71. A(O   1,Fe  0,O  21)           98.7940         0.585023   
     72. A(O   1,Fe  0,N  32)           93.4281         0.511996   
     73. A(O  21,Fe  0,O  33)           98.7955         0.585048   
     74. A(O   1,Fe  0,O  33)           98.7903         0.584982   
     75. A(N   3,Fe  0,O  33)           93.4253         0.511971   
     76. A(O  21,Fe  0,N  44)           93.4338         0.512052   
     77. A(O   1,Fe  0,N   3)           83.6836         0.511949   
     78. A(O  21,Fe  0,N  32)           83.6902         0.512052   
     79. A(O  33,Fe  0,N  44)           83.6873         0.512017   
     80. A(N   3,Fe  0,N  44)           83.3936         0.449728   
     81. A(N  32,Fe  0,N  44)           83.3976         0.449768   
     82. A(N   3,Fe  0,N  32)           83.3944         0.449728   
     83. A(N   3,Fe  0,O  21)          166.9723         0.512005   
     84. A(N  32,Fe  0,O  33)          166.9717         0.512017   
     85. A(Fe  0,O   1,C   4)          136.1988         0.507639   
     86. A(C  10,O   2,C  12)          107.7586         0.409938   
     87. A(Fe  0,N   3,C  11)          125.5354         0.407146   
     88. A(Fe  0,N   3,C  10)          127.3307         0.453614   
     89. A(C  10,N   3,C  11)          107.1036         0.410608   
     90. A(C   5,C   4,C   9)          117.8870         0.432238   
     91. A(O   1,C   4,C   5)          119.4773         0.436367   
     92. A(O   1,C   4,C   9)          122.5815         0.438176   
     93. A(C   6,C   5,H  16)          119.6594         0.394936   
     94. A(C   4,C   5,H  16)          119.5107         0.383791   
     95. A(C   4,C   5,C   6)          120.8298         0.443369   
     96. A(C   5,C   6,H  17)          119.3653         0.394978   
     97. A(C   5,C   6,C   7)          121.3640         0.451735   
     98. A(C   7,C   6,H  17)          119.2707         0.390793   
     99. A(C   6,C   7,C   8)          119.2775         0.450648   
    100. A(C   8,C   7,H  18)          120.3427         0.394024   
    101. A(C   6,C   7,H  18)          120.3798         0.390755   
    102. A(C   7,C   8,C   9)          120.8909         0.442444   
    103. A(C   9,C   8,H  19)          119.5271         0.384170   
    104. A(C   7,C   8,H  19)          119.5820         0.394293   
    105. A(C   4,C   9,C  10)          121.4569         0.422598   
    106. A(C   4,C   9,C   8)          119.6561         0.432371   
    107. A(C   8,C   9,C  10)          118.8676         0.420998   
    108. A(N   3,C  10,C   9)          126.7299         0.433798   
    109. A(O   2,C  10,C   9)          117.7519         0.425148   
    110. A(O   2,C  10,N   3)          115.5098         0.448335   
    111. A(N   3,C  11,H  13)          110.8326         0.347690   
    112. A(C  12,C  11,H  13)          110.8684         0.350069   
    113. A(N   3,C  11,C  12)          104.5785         0.372203   
    114. A(H  13,C  11,H  20)          108.8874         0.327491   
    115. A(C  12,C  11,H  20)          110.8119         0.350090   
    116. A(N   3,C  11,H  20)          110.8302         0.347711   
    117. A(O   2,C  12,H  14)          110.8800         0.353584   
    118. A(H  14,C  12,H  15)          108.9218         0.327153   
    119. A(C  11,C  12,H  14)          110.8540         0.349863   
    120. A(O   2,C  12,C  11)          104.4076         0.378885   
    121. A(C  11,C  12,H  15)          110.8672         0.349927   
    122. A(O   2,C  12,H  15)          110.8734         0.353649   
    123. A(Fe  0,O  21,C  22)          136.1970         0.507694   
    124. A(C  23,C  22,C  27)          117.8887         0.432252   
    125. A(O  21,C  22,C  27)          122.5789         0.438172   
    126. A(O  21,C  22,C  23)          119.4780         0.436381   
    127. A(C  22,C  23,C  24)          120.8309         0.443369   
    128. A(C  24,C  23,H  60)          119.6549         0.394921   
    129. A(C  22,C  23,H  60)          119.5142         0.383803   
    130. A(C  23,C  24,H  59)          119.3679         0.394971   
    131. A(C  23,C  24,C  25)          121.3599         0.451723   
    132. A(C  25,C  24,H  59)          119.2722         0.390803   
    133. A(C  24,C  25,H  58)          120.3777         0.390742   
    134. A(C  24,C  25,C  26)          119.2837         0.450668   
    135. A(C  26,C  25,H  58)          120.3387         0.394021   
    136. A(C  25,C  26,H  57)          119.5898         0.394314   
    137. A(C  27,C  26,H  57)          119.5230         0.384156   
    138. A(C  25,C  26,C  27)          120.8872         0.442433   
    139. A(C  26,C  27,C  28)          118.8676         0.420976   
    140. A(C  22,C  27,C  26)          119.6546         0.432343   
    141. A(C  22,C  27,C  28)          121.4584         0.422599   
    142. A(C  27,C  28,O  29)          117.7549         0.425163   
    143. A(O  29,C  28,N  32)          115.5074         0.448346   
    144. A(C  27,C  28,N  32)          126.7292         0.433799   
    145. A(C  28,O  29,C  30)          107.7615         0.409960   
    146. A(H  55,C  30,H  56)          108.9207         0.327163   
    147. A(C  31,C  30,H  56)          110.8701         0.349942   
    148. A(C  31,C  30,H  55)          110.8542         0.349886   
    149. A(O  29,C  30,H  55)          110.8774         0.353602   
    150. A(O  29,C  30,H  56)          110.8745         0.353659   
    151. A(O  29,C  30,C  31)          104.4071         0.378910   
    152. A(C  30,C  31,N  32)          104.5791         0.372218   
    153. A(H  53,C  31,H  54)          108.8804         0.327488   
    154. A(C  30,C  31,H  54)          110.8117         0.350102   
    155. A(N  32,C  31,H  53)          110.8326         0.347689   
    156. A(C  30,C  31,H  53)          110.8740         0.350083   
    157. A(N  32,C  31,H  54)          110.8316         0.347708   
    158. A(Fe  0,N  32,C  31)          125.5399         0.407181   
    159. A(Fe  0,N  32,C  28)          127.3272         0.453653   
    160. A(C  28,N  32,C  31)          107.1024         0.410606   
    161. A(Fe  0,O  33,C  34)          136.1975         0.507648   
    162. A(C  35,C  34,C  39)          117.8888         0.432240   
    163. A(O  33,C  34,C  39)          122.5758         0.438164   
    164. A(O  33,C  34,C  35)          119.4809         0.436359   
    165. A(C  34,C  35,H  52)          119.5089         0.383787   
    166. A(C  36,C  35,H  52)          119.6599         0.394928   
    167. A(C  34,C  35,C  36)          120.8312         0.443371   
    168. A(C  37,C  36,H  51)          119.2730         0.390795   
    169. A(C  35,C  36,H  51)          119.3644         0.394970   
    170. A(C  35,C  36,C  37)          121.3626         0.451746   
    171. A(C  38,C  37,H  50)          120.3428         0.394012   
    172. A(C  36,C  37,H  50)          120.3763         0.390753   
    173. A(C  36,C  37,C  38)          119.2809         0.450660   
    174. A(C  39,C  38,H  49)          119.5287         0.384157   
    175. A(C  37,C  38,H  49)          119.5821         0.394301   
    176. A(C  37,C  38,C  39)          120.8892         0.442418   
    177. A(C  38,C  39,C  40)          118.8651         0.420997   
    178. A(C  34,C  39,C  40)          121.4632         0.422620   
    179. A(C  34,C  39,C  38)          119.6523         0.432345   
    180. A(O  41,C  40,N  44)          115.5067         0.448350   
    181. A(C  39,C  40,N  44)          126.7275         0.433819   
    182. A(C  39,C  40,O  41)          117.7574         0.425188   
    183. A(C  40,O  41,C  42)          107.7632         0.409954   
    184. A(H  47,C  42,H  48)          108.9213         0.327170   
    185. A(C  43,C  42,H  48)          110.8683         0.349927   
    186. A(O  41,C  42,H  48)          110.8717         0.353649   
    187. A(C  43,C  42,H  47)          110.8575         0.349881   
    188. A(O  41,C  42,H  47)          110.8784         0.353602   
    189. A(O  41,C  42,C  43)          104.4069         0.378885   
    190. A(H  45,C  43,H  46)          108.8923         0.327511   
    191. A(N  44,C  43,H  46)          110.8319         0.347721   
    192. A(C  42,C  43,H  46)          110.8075         0.350108   
    193. A(N  44,C  43,H  45)          110.8338         0.347686   
    194. A(C  42,C  43,H  45)          110.8676         0.350073   
    195. A(C  42,C  43,N  44)          104.5756         0.372194   
    196. A(C  40,N  44,C  43)          107.1059         0.410596   
    197. A(Fe  0,N  44,C  43)          125.5319         0.407172   
    198. A(Fe  0,N  44,C  40)          127.3316         0.453651   
    199. D(C   4,O   1,Fe  0,O  21)   -150.9437         0.004280   
    200. D(C   4,O   1,Fe  0,O  33)    108.6581         0.004280   
    201. D(C   4,O   1,Fe  0,N  32)    -66.8064         0.004280   
    202. D(C   4,O   1,Fe  0,N   3)     16.1529         0.004280   
    203. D(C   4,O   1,Fe  0,N  44)      8.6008         0.004280   
    204. D(C  11,N   3,Fe  0,O  21)    -88.8578         0.002227   
    205. D(C  10,N   3,Fe  0,O  21)     93.4091         0.002227   
    206. D(C  11,N   3,Fe  0,O   1)    169.3742         0.002227   
    207. D(C  10,N   3,Fe  0,N  32)     85.8492         0.002227   
    208. D(C  10,N   3,Fe  0,O   1)     -8.3590         0.002227   
    209. D(C  10,N   3,Fe  0,O  33)   -106.8353         0.002227   
    210. D(C  10,N   3,Fe  0,N  44)    169.9310         0.002227   
    211. D(C   9,C   4,O   1,Fe  0)    -13.7801         0.034194   
    212. D(C   5,C   4,O   1,Fe  0)    168.9554         0.034194   
    213. D(C   6,C   5,C   4,O   1)   -178.9654         0.025324   
    214. D(H  16,C   5,C   4,C   9)   -176.4379         0.025324   
    215. D(C   6,C   5,C   4,C   9)      3.6423         0.025324   
    216. D(H  16,C   5,C   4,O   1)      0.9544         0.025324   
    217. D(H  17,C   6,C   5,H  16)     -2.0364         0.035995   
    218. D(C   7,C   6,C   5,H  16)    177.8963         0.035995   
    219. D(C   7,C   6,C   5,C   4)     -2.1840         0.035995   
    220. D(H  17,C   6,C   5,C   4)    177.8833         0.035995   
    221. D(C   8,C   7,C   6,H  17)   -179.7605         0.031552   
    222. D(H  18,C   7,C   6,H  17)      0.1754         0.031552   
    223. D(H  18,C   7,C   6,C   5)   -179.7574         0.031552   
    224. D(C   8,C   7,C   6,C   5)      0.3067         0.031552   
    225. D(H  19,C   8,C   7,C   6)    179.9581         0.034972   
    226. D(H  19,C   8,C   7,H  18)      0.0221         0.034972   
    227. D(C   9,C   8,C   7,C   6)      0.0052         0.034972   
    228. D(C   9,C   8,C   7,H  18)   -179.9307         0.034972   
    229. D(C   8,C   9,C   4,O   1)    179.3982         0.026585   
    230. D(C  10,C   9,C   8,H  19)      3.1776         0.025416   
    231. D(C  10,C   9,C   8,C   7)   -176.8695         0.025416   
    232. D(C   4,C   9,C   8,H  19)   -178.4024         0.025416   
    233. D(C   4,C   9,C   8,C   7)      1.5505         0.025416   
    234. D(C  10,C   9,C   4,C   5)    175.0819         0.026585   
    235. D(C  10,C   9,C   4,O   1)     -2.2239         0.026585   
    236. D(C   8,C   9,C   4,C   5)     -3.2960         0.026585   
    237. D(N   3,C  10,C   9,C   8)   -173.2354         0.019482   
    238. D(N   3,C  10,C   9,C   4)      8.3742         0.019482   
    239. D(O   2,C  10,C   9,C   4)   -172.7336         0.019482   
    240. D(C   9,C  10,N   3,C  11)   -178.5927         0.046381   
    241. D(C   9,C  10,N   3,Fe  0)     -0.5226         0.046381   
    242. D(O   2,C  10,N   3,C  11)      2.4935         0.046381   
    243. D(C   9,C  10,O   2,C  12)   -176.1311         0.032796   
    244. D(O   2,C  10,N   3,Fe  0)   -179.4364         0.046381   
    245. D(O   2,C  10,C   9,C   8)      5.6568         0.019482   
    246. D(N   3,C  10,O   2,C  12)      2.8851         0.032796   
    247. D(H  20,C  11,N   3,Fe  0)     55.9172         0.014155   
    248. D(H  13,C  11,N   3,C  10)    113.0107         0.014155   
    249. D(H  13,C  11,N   3,Fe  0)    -65.1036         0.014155   
    250. D(C  12,C  11,N   3,C  10)     -6.5131         0.014155   
    251. D(C  12,C  11,N   3,Fe  0)    175.3726         0.014155   
    252. D(H  14,C  12,C  11,H  20)   -113.1757         0.013247   
    253. D(H  14,C  12,C  11,N   3)    127.3566         0.013247   
    254. D(O   2,C  12,C  11,H  20)    127.3756         0.013247   
    255. D(O   2,C  12,C  11,H  13)   -111.5919         0.013247   
    256. D(O   2,C  12,C  11,N   3)      7.9078         0.013247   
    257. D(H  14,C  12,C  11,H  13)      7.8569         0.013247   
    258. D(H  15,C  12,O   2,C  10)    112.6993         0.016055   
    259. D(H  14,C  12,O   2,C  10)   -126.1754         0.016055   
    260. D(C  11,C  12,O   2,C  10)     -6.7441         0.016055   
    261. D(C  22,O  21,Fe  0,O   1)    108.6647         0.004284   
    262. D(C  22,O  21,Fe  0,N  44)    -66.8062         0.004284   
    263. D(C  22,O  21,Fe  0,O  33)   -150.9415         0.004284   
    264. D(C  22,O  21,Fe  0,N  32)     16.1561         0.004284   
    265. D(C  22,O  21,Fe  0,N   3)      8.6007         0.004284   
    266. D(C  27,C  22,O  21,Fe  0)    -13.7853         0.034193   
    267. D(C  23,C  22,O  21,Fe  0)    168.9564         0.034193   
    268. D(H  60,C  23,C  22,C  27)   -176.4390         0.025335   
    269. D(H  60,C  23,C  22,O  21)      0.9473         0.025335   
    270. D(C  24,C  23,C  22,C  27)      3.6486         0.025335   
    271. D(C  24,C  23,C  22,O  21)   -178.9652         0.025335   
    272. D(H  59,C  24,C  23,H  60)     -2.0284         0.035979   
    273. D(H  59,C  24,C  23,C  22)    177.8839         0.035979   
    274. D(C  25,C  24,C  23,H  60)    177.8984         0.035979   
    275. D(C  25,C  24,C  23,C  22)     -2.1893         0.035979   
    276. D(H  58,C  25,C  24,H  59)      0.1738         0.031555   
    277. D(H  58,C  25,C  24,C  23)   -179.7531         0.031555   
    278. D(C  26,C  25,C  24,H  59)   -179.7658         0.031555   
    279. D(C  26,C  25,C  24,C  23)      0.3074         0.031555   
    280. D(H  57,C  26,C  25,H  58)      0.0170         0.034987   
    281. D(H  57,C  26,C  25,C  24)    179.9566         0.034987   
    282. D(C  27,C  26,C  25,H  58)   -179.9315         0.034987   
    283. D(C  27,C  26,C  25,C  24)      0.0081         0.034987   
    284. D(C  28,C  27,C  26,C  25)   -176.8719         0.025398   
    285. D(C  22,C  27,C  26,C  25)      1.5486         0.025398   
    286. D(C  28,C  27,C  22,C  23)    175.0797         0.026583   
    287. D(C  28,C  27,C  22,O  21)     -2.2199         0.026583   
    288. D(C  22,C  27,C  26,H  57)   -178.4000         0.025398   
    289. D(C  26,C  27,C  22,C  23)     -3.2987         0.026583   
    290. D(C  26,C  27,C  22,O  21)    179.4017         0.026583   
    291. D(C  28,C  27,C  26,H  57)      3.1796         0.025398   
    292. D(N  32,C  28,C  27,C  26)   -173.2357         0.019483   
    293. D(N  32,C  28,C  27,C  22)      8.3735         0.019483   
    294. D(O  29,C  28,C  27,C  26)      5.6552         0.019483   
    295. D(O  29,C  28,C  27,C  22)   -172.7356         0.019483   
    296. D(C  30,O  29,C  28,N  32)      2.8855         0.032807   
    297. D(C  30,O  29,C  28,C  27)   -176.1296         0.032807   
    298. D(H  56,C  30,O  29,C  28)    112.7007         0.016059   
    299. D(H  55,C  30,O  29,C  28)   -126.1763         0.016059   
    300. D(C  31,C  30,O  29,C  28)     -6.7465         0.016059   
    301. D(H  53,C  31,C  30,H  56)    128.9577         0.013253   
    302. D(H  53,C  31,C  30,H  55)      7.8534         0.013253   
    303. D(H  53,C  31,C  30,O  29)   -111.5921         0.013253   
    304. D(N  32,C  31,C  30,H  56)   -111.5393         0.013253   
    305. D(N  32,C  31,C  30,H  55)    127.3563         0.013253   
    306. D(N  32,C  31,C  30,O  29)      7.9109         0.013253   
    307. D(C  28,N  32,C  31,H  53)    113.0147         0.014154   
    308. D(Fe  0,N  32,C  31,H  54)     55.9154         0.014154   
    309. D(Fe  0,N  32,C  31,H  53)    -65.0974         0.014154   
    310. D(Fe  0,N  32,C  31,C  30)    175.3718         0.014154   
    311. D(C  31,N  32,C  28,C  27)   -178.5923         0.046380   
    312. D(Fe  0,N  32,C  28,O  29)   -179.4367         0.046380   
    313. D(Fe  0,N  32,C  28,C  27)     -0.5242         0.046380   
    314. D(C  31,N  32,Fe  0,N   3)    -12.3378         0.002228   
    315. D(C  31,N  32,Fe  0,O   1)     70.8919         0.002228   
    316. D(C  31,N  32,C  28,O  29)      2.4952         0.046380   
    317. D(C  28,N  32,Fe  0,N  44)     85.8542         0.002228   
    318. D(C  28,N  32,Fe  0,O  33)     93.4446         0.002228   
    319. D(C  28,N  32,Fe  0,O  21)     -8.3586         0.002228   
    320. D(C  28,N  32,C  31,C  30)     -6.5161         0.014154   
    321. D(C  28,N  32,Fe  0,N   3)    169.9315         0.002228   
    322. D(C  28,N  32,Fe  0,O   1)   -106.8387         0.002228   
    323. D(C  34,O  33,Fe  0,O  21)    108.6623         0.004282   
    324. D(C  34,O  33,Fe  0,N   3)    -66.8106         0.004282   
    325. D(C  34,O  33,Fe  0,O   1)   -150.9408         0.004282   
    326. D(C  34,O  33,Fe  0,N  44)     16.1484         0.004282   
    327. D(C  34,O  33,Fe  0,N  32)      8.5624         0.004282   
    328. D(C  39,C  34,O  33,Fe  0)    -13.7810         0.034184   
    329. D(C  35,C  34,O  33,Fe  0)    168.9630         0.034184   
    330. D(H  52,C  35,C  34,C  39)   -176.4387         0.025326   
    331. D(H  52,C  35,C  34,O  33)      0.9452         0.025326   
    332. D(C  36,C  35,C  34,C  39)      3.6473         0.025326   
    333. D(C  36,C  35,C  34,O  33)   -178.9687         0.025326   
    334. D(H  51,C  36,C  35,H  52)     -2.0372         0.035994   
    335. D(H  51,C  36,C  35,C  34)    177.8766         0.035994   
    336. D(C  37,C  36,C  35,H  52)    177.9017         0.035994   
    337. D(C  37,C  36,C  35,C  34)     -2.1844         0.035994   
    338. D(H  50,C  37,C  36,H  51)      0.1786         0.031562   
    339. D(H  50,C  37,C  36,C  35)   -179.7604         0.031562   
    340. D(C  38,C  37,C  36,H  51)   -179.7592         0.031562   
    341. D(C  38,C  37,C  36,C  35)      0.3018         0.031562   
    342. D(H  49,C  38,C  37,H  50)      0.0177         0.034972   
    343. D(H  49,C  38,C  37,C  36)    179.9556         0.034972   
    344. D(C  39,C  38,C  37,H  50)   -179.9271         0.034972   
    345. D(C  39,C  38,C  37,C  36)      0.0108         0.034972   
    346. D(C  40,C  39,C  38,C  37)   -176.8734         0.025399   
    347. D(C  34,C  39,C  38,H  49)   -178.3955         0.025399   
    348. D(C  34,C  39,C  38,C  37)      1.5493         0.025399   
    349. D(C  40,C  39,C  34,C  35)    175.0805         0.026584   
    350. D(C  40,C  39,C  34,O  33)     -2.2169         0.026584   
    351. D(C  38,C  39,C  34,C  35)     -3.3001         0.026584   
    352. D(C  40,C  39,C  38,H  49)      3.1818         0.025399   
    353. D(C  38,C  39,C  34,O  33)    179.4025         0.026584   
    354. D(N  44,C  40,C  39,C  38)   -173.2369         0.019494   
    355. D(N  44,C  40,C  39,C  34)      8.3701         0.019494   
    356. D(O  41,C  40,C  39,C  38)      5.6556         0.019494   
    357. D(O  41,C  40,C  39,C  34)   -172.7374         0.019494   
    358. D(C  42,O  41,C  40,N  44)      2.8826         0.032811   
    359. D(C  42,O  41,C  40,C  39)   -176.1339         0.032811   
    360. D(H  48,C  42,O  41,C  40)    112.7009         0.016055   
    361. D(H  47,C  42,O  41,C  40)   -126.1767         0.016055   
    362. D(C  43,C  42,O  41,C  40)     -6.7426         0.016055   
    363. D(H  45,C  43,C  42,H  48)    128.9622         0.013247   
    364. D(H  45,C  43,C  42,H  47)      7.8562         0.013247   
    365. D(H  45,C  43,C  42,O  41)   -111.5920         0.013247   
    366. D(N  44,C  43,C  42,H  48)   -111.5388         0.013247   
    367. D(N  44,C  43,C  42,H  47)    127.3552         0.013247   
    368. D(N  44,C  43,C  42,O  41)      7.9070         0.013247   
    369. D(C  40,N  44,C  43,H  45)    113.0077         0.014151   
    370. D(C  40,N  44,C  43,C  42)     -6.5141         0.014151   
    371. D(Fe  0,N  44,C  43,H  46)     55.9285         0.014151   
    372. D(Fe  0,N  44,C  43,C  42)    175.3779         0.014151   
    373. D(C  43,N  44,C  40,O  41)      2.4959         0.046378   
    374. D(C  43,N  44,C  40,C  39)   -178.5901         0.046378   
    375. D(Fe  0,N  44,C  40,O  41)   -179.4405         0.046378   
    376. D(Fe  0,N  44,C  40,C  39)     -0.5264         0.046378   
    377. D(C  43,N  44,Fe  0,N   3)    -96.4218         0.002228   
    378. D(C  43,N  44,Fe  0,O   1)    -88.8654         0.002228   
    379. D(C  40,N  44,Fe  0,O  33)     -8.3526         0.002228   
    380. D(Fe  0,N  44,C  43,H  45)    -65.1004         0.014151   
    381. D(C  40,N  44,Fe  0,N  32)    169.9307         0.002228   
    382. D(C  40,N  44,Fe  0,O  21)   -106.8335         0.002228   
    383. D(C  40,N  44,Fe  0,N   3)     85.8525         0.002228   
    384. D(C  40,N  44,Fe  0,O   1)     93.4089         0.002228   
    -----------------------------------------------------------------

Number of atoms                         .... 61
Number of degrees of freedom            .... 384


         *************************************************************
         *                GEOMETRY OPTIMIZATION CYCLE   1            *
         *************************************************************
---------------------------------
CARTESIAN COORDINATES (ANGSTROEM)
---------------------------------
  Fe     7.441100    4.296000    4.010900
  O      5.856800    3.677000    4.944200
  O      4.062000    5.558700    1.650000
  N      6.027200    5.121800    2.646000
  C      4.559800    3.528800    4.651500
  C      3.732400    2.822500    5.530200
  C      2.420600    2.638200    5.251000
  C      1.849100    3.171800    4.125600
  C      2.616300    3.894800    3.270500
  C      3.975700    4.099700    3.524100
  C      4.729500    4.925900    2.628700
  C      6.337500    6.071600    1.559000
  C      5.033800    6.249500    0.827600
  H      6.656700    6.933800    1.925400
  H      4.805400    7.209700    0.742400
  H      5.079200    5.848700   -0.076900
  H      4.097000    2.466800    6.332800
  H      1.884100    2.129100    5.847900
  H      0.925700    3.036500    3.945000
  H      2.224900    4.266000    2.489100
  H      7.031000    5.703000    0.956900
  O      8.769200    3.233600    4.944200
  C      9.546100    2.184500    4.651500
  C     10.571400    1.821100    5.530200
  C     11.387000    0.777200    5.251000
  C     11.210600    0.015500    4.125600
  C     10.200900    0.318300    3.270500
  C      9.343700    1.393200    3.524100
  C      8.251300    1.632900    2.628700
  O      8.037000    0.738500    1.650000
  C      6.952900    1.234700    0.827600
  C      6.455100    2.452600    1.559000
  N      7.432800    2.658800    2.646000
  O      7.697000    5.977500    4.944200
  C      8.217100    7.174900    4.651500
  C      8.019200    8.244600    5.530200
  C      8.515500    9.472800    5.251000
  C      9.263300    9.700900    4.125600
  C      9.505900    8.675000    3.270500
  C      9.003600    7.395200    3.524100
  C      9.342200    6.329400    2.628700
  O     10.223900    6.591000    1.650000
  C     10.336300    5.404000    0.827600
  C      9.530400    4.363900    1.559000
  N      8.863000    5.107600    2.646000
  H     10.117500    3.656400    1.925400
  H      8.864500    3.947700    0.956900
  H     11.282000    5.121800    0.742400
  H      9.966500    5.565100   -0.076900
  H     10.023000    8.828400    2.489100
  H      9.607800   10.568300    3.945000
  H      8.342800   10.192000    5.847900
  H      7.528800    8.106700    6.332800
  H      5.548800    2.298000    1.925400
  H      6.427500    3.237500    0.956900
  H      6.235600    0.556800    0.742400
  H      7.277300    1.474400   -0.076900
  H     10.075100   -0.206200    2.489100
  H     11.789500   -0.716600    3.945000
  H     12.096100    0.567100    5.847900
  H     10.697200    2.314700    6.332800

----------------------------
CARTESIAN COORDINATES (A.U.)
----------------------------
  NO LB      ZA    FRAG     MASS         X           Y           Z
   0 Fe   26.0000    0    55.850   14.061641    8.118263    7.579503
   1 O     8.0000    0    15.999   11.067748    6.948523    9.343184
   2 O     8.0000    0    15.999    7.676068   10.504421    3.118048
   3 N     7.0000    0    14.007   11.389757    9.678799    5.000215
   4 C     6.0000    0    12.011    8.616773    6.668466    8.790061
   5 C     6.0000    0    12.011    7.053214    5.333752   10.450563
   6 C     6.0000    0    12.011    4.574271    4.985475    9.922952
   7 C     6.0000    0    12.011    3.494293    5.993833    7.796254
   8 C     6.0000    0    12.011    4.944090    7.360105    6.180349
   9 C     6.0000    0    12.011    7.512984    7.747310    6.659584
  10 C     6.0000    0    12.011    8.937460    9.308602    4.967523
  11 C     6.0000    0    12.011   11.976139   11.473661    2.946083
  12 C     6.0000    0    12.011    9.512503   11.809843    1.563937
  13 H     1.0000    0     1.008   12.579340   13.102983    3.638479
  14 H     1.0000    0     1.008    9.080890   13.624359    1.402933
  15 H     1.0000    0     1.008    9.598297   11.052441   -0.145320
  16 H     1.0000    0     1.008    7.742208    4.661576   11.967258
  17 H     1.0000    0     1.008    3.560433    4.023416   11.050929
  18 H     1.0000    0     1.008    1.749319    5.738153    7.454970
  19 H     1.0000    0     1.008    4.204452    8.061572    4.703717
  20 H     1.0000    0     1.008   13.286664   10.777108    1.808279
  21 O     8.0000    0    15.999   16.571386    6.110618    9.343184
  22 C     6.0000    0    12.011   18.039515    4.128107    8.790061
  23 C     6.0000    0    12.011   19.977051    3.441380   10.450563
  24 C     6.0000    0    12.011   21.518311    1.468695    9.922952
  25 C     6.0000    0    12.011   21.184964    0.029291    7.796254
  26 C     6.0000    0    12.011   19.276907    0.601500    6.180349
  27 C     6.0000    0    12.011   17.657034    2.632766    6.659584
  28 C     6.0000    0    12.011   15.592697    3.085734    4.967523
  29 O     8.0000    0    15.999   15.187729    1.395563    3.118048
  30 C     6.0000    0    12.011   13.139077    2.333245    1.563937
  31 C     6.0000    0    12.011   12.198371    4.634742    2.946083
  32 N     7.0000    0    14.007   14.045956    5.024404    5.000215
  33 O     8.0000    0    15.999   14.545222   11.295838    9.343184
  34 C     6.0000    0    12.011   15.528069   13.558596    8.790061
  35 C     6.0000    0    12.011   15.154092   15.580036   10.450563
  36 C     6.0000    0    12.011   16.091963   17.900998    9.922952
  37 C     6.0000    0    12.011   17.505100   18.332044    7.796254
  38 C     6.0000    0    12.011   17.963548   16.393374    6.180349
  39 C     6.0000    0    12.011   17.014338   13.974903    6.659584
  40 C     6.0000    0    12.011   17.654199   11.960833    4.967523
  41 O     8.0000    0    15.999   19.320371   12.455185    3.118048
  42 C     6.0000    0    12.011   19.532776   10.212080    1.563937
  43 C     6.0000    0    12.011   18.009846    8.246576    2.946083
  44 N     7.0000    0    14.007   16.748643    9.651965    5.000215
  45 H     1.0000    0     1.008   19.119304    6.909595    3.638479
  46 H     1.0000    0     1.008   16.751477    7.460072    1.808279
  47 H     1.0000    0     1.008   21.319890    9.678799    1.402933
  48 H     1.0000    0     1.008   18.833956   10.516515   -0.145320
  49 H     1.0000    0     1.008   18.940725   16.683258    4.703717
  50 H     1.0000    0     1.008   18.156111   19.971193    7.454970
  51 H     1.0000    0     1.008   15.765607   19.260089   11.050929
  52 H     1.0000    0     1.008   14.227370   15.319443   11.967258
  53 H     1.0000    0     1.008   10.485712    4.342591    3.638479
  54 H     1.0000    0     1.008   12.146215    6.117988    1.808279
  55 H     1.0000    0     1.008   11.783576    1.052200    1.402933
  56 H     1.0000    0     1.008   13.752104    2.786212   -0.145320
  57 H     1.0000    0     1.008   19.039180   -0.389662    4.703717
  58 H     1.0000    0     1.008   22.278926   -1.354178    7.454970
  59 H     1.0000    0     1.008   22.858316    1.071664   11.050929
  60 H     1.0000    0     1.008   20.214778    4.374149   11.967258

--------------------------------
INTERNAL COORDINATES (ANGSTROEM)
--------------------------------
 Fe     0   0   0     0.000000000000     0.00000000     0.00000000
 O      1   0   0     1.940158854321     0.00000000     0.00000000
 O      2   1   0     4.196886413760    80.13004803     0.00000000
 N      1   2   3     2.131668562418    83.68363794     1.71194750
 C      2   1   3     1.337851086631   136.19884075    14.44091841
 C      5   2   1     1.398414866912   119.47730996   168.95538284
 C      6   5   2     1.353786678173   120.82976499   181.03460101
 C      7   6   5     1.370352644395   121.36396763   357.81604937
 C      8   7   6     1.357394876224   119.27748587     0.30667267
 C      5   2   1     1.392167511473   122.58148147   346.21993576
 C      4   1   2     1.312517196078   127.33066549   351.64102604
 C      4   1   2     1.476473883955   125.53535610   169.37416569
 C      3   2   1     1.448427298831   111.87452508   354.02678097
 H     12   4   1     0.989710280840   110.83260686   294.89644222
 H     13   3   2     0.990661213534   110.87999357   237.34233435
 H     13   3   2     0.990364604578   110.87338808   116.21699567
 H      6   5   2     0.950590558548   119.51074770     0.95443444
 H      7   6   5     0.950423416168   119.36534843   177.88328100
 H      8   7   6     0.950573516357   120.37981197   180.24259937
 H      9   8   7     0.949510063138   119.58204066   179.95808069
 H     12   4   1     0.989612358452   110.83018887    55.91720111
 O      1   2   3     1.939998005154    98.79399708   194.61541504
 C     22   1   2     1.337855638699   136.19695173   108.66470454
 C     23  22   1     1.398360947681   119.47799296   168.95635178
 C     24  23  22     1.353840171512   120.83091410   181.03479799
 C     25  24  23     1.370339012799   121.35988147   357.81072494
 C     26  25  24     1.357342233926   119.28365371     0.30735607
 C     23  22   1     1.392175351743   122.57888541   346.21466141
 C     28  23  22     1.432667096712   121.45840984   357.78009003
 O     29  28  23     1.343029984773   117.75490587   187.26440676
 C     30  29  28     1.448388418208   107.76154631   183.87037362
 C     31  30  29     1.505334251919   104.40713225   353.25346747
 N     29  28  23     1.312521371255   126.72923706     8.37345360
 O      1   2   3     1.940096891910    98.79027439    94.21718100
 C     34   1   2     1.337887910103   136.19747128   209.05921891
 C     35  34   1     1.398404873418   119.48085494   168.96298541
 C     36  35  34     1.353787860043   120.83115530   181.03126517
 C     37  36  35     1.370313690364   121.36255498   357.81559208
 C     38  37  36     1.357395145122   119.28088203     0.30177474
 C     35  34   1     1.392172798183   122.57579152   346.21899367
 C     40  35  34     1.432592321632   121.46320057   357.78307015
 O     41  40  35     1.343012710290   117.75742947   187.26258200
 C     42  41  40     1.448428293013   107.76321106   183.86608393
 C     43  42  41     1.505399873788   104.40686084   353.25735240
 N     41  40  35     1.312527016865   126.72747096     8.37011176
 H     44  43  42     0.989692689677   110.86764160   248.40795364
 H     44  43  42     0.989530019757   110.80746932   127.37276664
 H     43  42  41     0.990577796036   110.87844433   233.82329608
 H     43  42  41     0.990366346359   110.87169744   112.70085097
 H     39  38  37     0.949478767535   119.58207773   179.95558875
 H     38  37  36     0.950620518398   120.37625197   180.23964811
 H     37  36  35     0.950454386070   119.36440265   177.87664820
 H     36  35  34     0.950618393468   119.50892346     0.94524869
 H     32  31  30     0.989711983357   110.87400993   248.40790351
 H     32  31  30     0.989623251546   110.81173902   127.38062372
 H     31  30  29     0.990619371908   110.87739663   233.82369122
 H     31  30  29     0.990359379215   110.87451821   112.70072329
 H     27  26  25     0.949479778616   119.58976585   179.95660267
 H     26  25  24     0.950637670198   120.37765457   180.24691448
 H     25  24  23     0.950396985475   119.36791014   177.88392021
 H     24  23  22     0.950596318108   119.51416079     0.94726422

---------------------------
INTERNAL COORDINATES (A.U.)
---------------------------
 Fe     0   0   0     0.000000000000     0.00000000     0.00000000
 O      1   0   0     3.666368890969     0.00000000     0.00000000
 O      2   1   0     7.930965937181    80.13004803     0.00000000
 N      1   2   3     4.028269791259    83.68363794     1.71194750
 C      2   1   3     2.528172161702   136.19884075    14.44091841
 C      5   2   1     2.642621120067   119.47730996   168.95538284
 C      6   5   2     2.558286065499   120.82976499   181.03460101
 C      7   6   5     2.589591204801   121.36396763   357.81604937
 C      8   7   6     2.565104571652   119.27748587     0.30667267
 C      5   2   1     2.630815329226   122.58148147   346.21993576
 C      4   1   2     2.480298046649   127.33066549   351.64102604
 C      4   1   2     2.790131284561   125.53535610   169.37416569
 C      3   2   1     2.737130919687   111.87452508   354.02678097
 H     12   4   1     1.870281382714   110.83260686   294.89644222
 H     13   3   2     1.872078385077   110.87999357   237.34233435
 H     13   3   2     1.871517875381   110.87338808   116.21699567
 H      6   5   2     1.796355821146   119.51074770     0.95443444
 H      7   6   5     1.796039967823   119.36534843   177.88328100
 H      8   7   6     1.796323616074   120.37981197   180.24259937
 H      9   8   7     1.794313980733   119.58204066   179.95808069
 H     12   4   1     1.870096336217   110.83018887    55.91720111
 O      1   2   3     3.666064930094    98.79399708   194.61541504
 C     22   1   2     2.528180763864   136.19695173   108.66470454
 C     23  22   1     2.642519227488   119.47799296   168.95635178
 C     24  23  22     2.558387153259   120.83091410   181.03479799
 C     25  24  23     2.589565444819   121.35988147   357.81072494
 C     26  25  24     2.565005092126   119.28365371     0.30735607
 C     23  22   1     2.630830145189   122.57888541   346.21466141
 C     28  23  22     2.707348453865   121.45840984   357.78009003
 O     29  28  23     2.537958860866   117.75490587   187.26440676
 C     30  29  28     2.737057445957   107.76154631   183.87037362
 C     31  30  29     2.844669476138   104.40713225   353.25346747
 N     29  28  23     2.480305936590   126.72923706     8.37345360
 O      1   2   3     3.666251798982    98.79027439    94.21718100
 C     34   1   2     2.528241747979   136.19747128   209.05921891
 C     35  34   1     2.642602235101   119.48085494   168.96298541
 C     36  35  34     2.558288298909   120.83115530   181.03126517
 C     37  36  35     2.589517592352   121.36255498   357.81559208
 C     38  37  36     2.565105079794   119.28088203     0.30177474
 C     35  34   1     2.630825319660   122.57579152   346.21899367
 C     40  35  34     2.707207149444   121.46320057   357.78307015
 O     41  40  35     2.537926216823   117.75742947   187.26258200
 C     42  41  40     2.737132798417   107.76321106   183.86608393
 C     43  42  41     2.844793483498   104.40686084   353.25735240
 N     41  40  35     2.480316605247   126.72747096     8.37011176
 H     44  43  42     1.870248140233   110.86764160   248.40795364
 H     44  43  42     1.869940738634   110.80746932   127.37276664
 H     43  42  41     1.871920748852   110.87844433   233.82329608
 H     43  42  41     1.871521166870   110.87169744   112.70085097
 H     39  38  37     1.794254840614   119.58207773   179.95558875
 H     38  37  36     1.796412437059   120.37625197   180.23964811
 H     37  36  35     1.796098492457   119.36440265   177.87664820
 H     36  35  34     1.796408421523   119.50892346     0.94524869
 H     32  31  30     1.870284600004   110.87400993   248.40790351
 H     32  31  30     1.870116921182   110.81173902   127.38062372
 H     31  30  29     1.871999315864   110.87739663   233.82369122
 H     31  30  29     1.871508000877   110.87451821   112.70072329
 H     27  26  25     1.794256751280   119.58976585   179.95660267
 H     26  25  24     1.796444849264   120.37765457   180.24691448
 H     25  24  23     1.795990021052   119.36791014   177.88392021
 H     24  23  22     1.796366705138   119.51416079     0.94726422

---------------------
BASIS SET INFORMATION
---------------------
There are 5 groups of distinct atoms

 Group   1 Type Fe  : 17s11p7d1f contracted to 6s4p4d1f pattern {842111/6311/4111/1}
 Group   2 Type O   : 11s6p2d1f contracted to 5s3p2d1f pattern {62111/411/11/1}
 Group   3 Type N   : 11s6p2d1f contracted to 5s3p2d1f pattern {62111/411/11/1}
 Group   4 Type C   : 11s6p2d1f contracted to 5s3p2d1f pattern {62111/411/11/1}
 Group   5 Type H   : 5s1p contracted to 3s1p pattern {311/1}

Atom   0Fe   basis set group =>   1
Atom   1O    basis set group =>   2
Atom   2O    basis set group =>   2
Atom   3N    basis set group =>   3
Atom   4C    basis set group =>   4
Atom   5C    basis set group =>   4
Atom   6C    basis set group =>   4
Atom   7C    basis set group =>   4
Atom   8C    basis set group =>   4
Atom   9C    basis set group =>   4
Atom  10C    basis set group =>   4
Atom  11C    basis set group =>   4
Atom  12C    basis set group =>   4
Atom  13H    basis set group =>   5
Atom  14H    basis set group =>   5
Atom  15H    basis set group =>   5
Atom  16H    basis set group =>   5
Atom  17H    basis set group =>   5
Atom  18H    basis set group =>   5
Atom  19H    basis set group =>   5
Atom  20H    basis set group =>   5
Atom  21O    basis set group =>   2
Atom  22C    basis set group =>   4
Atom  23C    basis set group =>   4
Atom  24C    basis set group =>   4
Atom  25C    basis set group =>   4
Atom  26C    basis set group =>   4
Atom  27C    basis set group =>   4
Atom  28C    basis set group =>   4
Atom  29O    basis set group =>   2
Atom  30C    basis set group =>   4
Atom  31C    basis set group =>   4
Atom  32N    basis set group =>   3
Atom  33O    basis set group =>   2
Atom  34C    basis set group =>   4
Atom  35C    basis set group =>   4
Atom  36C    basis set group =>   4
Atom  37C    basis set group =>   4
Atom  38C    basis set group =>   4
Atom  39C    basis set group =>   4
Atom  40C    basis set group =>   4
Atom  41O    basis set group =>   2
Atom  42C    basis set group =>   4
Atom  43C    basis set group =>   4
Atom  44N    basis set group =>   3
Atom  45H    basis set group =>   5
Atom  46H    basis set group =>   5
Atom  47H    basis set group =>   5
Atom  48H    basis set group =>   5
Atom  49H    basis set group =>   5
Atom  50H    basis set group =>   5
Atom  51H    basis set group =>   5
Atom  52H    basis set group =>   5
Atom  53H    basis set group =>   5
Atom  54H    basis set group =>   5
Atom  55H    basis set group =>   5
Atom  56H    basis set group =>   5
Atom  57H    basis set group =>   5
Atom  58H    basis set group =>   5
Atom  59H    basis set group =>   5
Atom  60H    basis set group =>   5
---------------------------------
AUXILIARY/J BASIS SET INFORMATION
---------------------------------
There are 5 groups of distinct atoms

 Group   1 Type Fe  : 19s5p5d3f3g contracted to 8s5p5d2f3g pattern {121111111/11111/11111/21/111}
 Group   2 Type O   : 12s5p4d2f1g contracted to 6s4p3d1f1g pattern {711111/2111/211/2/1}
 Group   3 Type N   : 12s5p4d2f1g contracted to 6s4p3d1f1g pattern {711111/2111/211/2/1}
 Group   4 Type C   : 12s5p4d2f1g contracted to 6s4p3d1f1g pattern {711111/2111/211/2/1}
 Group   5 Type H   : 5s2p1d contracted to 3s1p1d pattern {311/2/1}

Atom   0Fe   basis set group =>   1
Atom   1O    basis set group =>   2
Atom   2O    basis set group =>   2
Atom   3N    basis set group =>   3
Atom   4C    basis set group =>   4
Atom   5C    basis set group =>   4
Atom   6C    basis set group =>   4
Atom   7C    basis set group =>   4
Atom   8C    basis set group =>   4
Atom   9C    basis set group =>   4
Atom  10C    basis set group =>   4
Atom  11C    basis set group =>   4
Atom  12C    basis set group =>   4
Atom  13H    basis set group =>   5
Atom  14H    basis set group =>   5
Atom  15H    basis set group =>   5
Atom  16H    basis set group =>   5
Atom  17H    basis set group =>   5
Atom  18H    basis set group =>   5
Atom  19H    basis set group =>   5
Atom  20H    basis set group =>   5
Atom  21O    basis set group =>   2
Atom  22C    basis set group =>   4
Atom  23C    basis set group =>   4
Atom  24C    basis set group =>   4
Atom  25C    basis set group =>   4
Atom  26C    basis set group =>   4
Atom  27C    basis set group =>   4
Atom  28C    basis set group =>   4
Atom  29O    basis set group =>   2
Atom  30C    basis set group =>   4
Atom  31C    basis set group =>   4
Atom  32N    basis set group =>   3
Atom  33O    basis set group =>   2
Atom  34C    basis set group =>   4
Atom  35C    basis set group =>   4
Atom  36C    basis set group =>   4
Atom  37C    basis set group =>   4
Atom  38C    basis set group =>   4
Atom  39C    basis set group =>   4
Atom  40C    basis set group =>   4
Atom  41O    basis set group =>   2
Atom  42C    basis set group =>   4
Atom  43C    basis set group =>   4
Atom  44N    basis set group =>   3
Atom  45H    basis set group =>   5
Atom  46H    basis set group =>   5
Atom  47H    basis set group =>   5
Atom  48H    basis set group =>   5
Atom  49H    basis set group =>   5
Atom  50H    basis set group =>   5
Atom  51H    basis set group =>   5
Atom  52H    basis set group =>   5
Atom  53H    basis set group =>   5
Atom  54H    basis set group =>   5
Atom  55H    basis set group =>   5
Atom  56H    basis set group =>   5
Atom  57H    basis set group =>   5
Atom  58H    basis set group =>   5
Atom  59H    basis set group =>   5
Atom  60H    basis set group =>   5


           ************************************************************
           *        Program running with 16 parallel MPI-processes    *
           *              working on a common directory               *
           ************************************************************
------------------------------------------------------------------------------
                             ORCA STARTUP CALCULATIONS
                           -- RI-GTO INTEGRALS CHOSEN --
------------------------------------------------------------------------------
------------------------------------------------------------------------------
                   ___                                                        
                  /   \      - P O W E R E D   B Y -                         
                 /     \                                                     
                 |  |  |   _    _      __       _____    __    __             
                 |  |  |  | |  | |    /  \     |  _  \  |  |  /  |          
                  \  \/   | |  | |   /    \    | | | |  |  | /  /          
                 / \  \   | |__| |  /  /\  \   | |_| |  |  |/  /          
                |  |  |   |  __  | /  /__\  \  |    /   |      \           
                |  |  |   | |  | | |   __   |  |    \   |  |\   \          
                \     /   | |  | | |  |  |  |  | |\  \  |  | \   \       
                 \___/    |_|  |_| |__|  |__|  |_| \__\ |__|  \__/        
                                                                              
                      - O R C A' S   B I G   F R I E N D -                    
                                      &                                       
                       - I N T E G R A L  F E E D E R -                       
                                                                              
 v1 FN, 2020, v2 2021, v3 2022-2024                                           
------------------------------------------------------------------------------


----------------------
SHARK INTEGRAL PACKAGE
----------------------

Number of atoms                             ...     61
Number of basis functions                   ...   1305
Number of shells                            ...    507
Maximum angular momentum                    ...      3
Integral batch strategy                     ... SHARK/LIBINT Hybrid
RI-J (if used) integral strategy            ... SPLIT-RIJ (Revised 2003 algorithm where possible)
Printlevel                                  ...      1
Contraction scheme used                     ... SEGMENTED contraction
Prescreening option                         ... SCHWARTZ
   Thresh                                   ... 2.500e-11
   Tcut                                     ... 2.500e-12
   Tpresel                                  ... 2.500e-12 
Coulomb Range Separation                    ... NOT USED
Exchange Range Separation                   ... NOT USED
Multipole approximations                    ... NOT USED
Finite Nucleus Model                        ... NOT USED
CABS basis                                  ... NOT available
Auxiliary Coulomb fitting basis             ... AVAILABLE
   # of basis functions in Aux-J            ...   2117
   # of shells in Aux-J                     ...    683
   Maximum angular momentum in Aux-J        ...      4
Auxiliary J/K fitting basis                 ... NOT available
Auxiliary Correlation fitting basis         ... NOT available
Auxiliary 'external' fitting basis          ... NOT available

Checking pre-screening integrals            ... done (  0.0 sec) Dimension = 507
Check shell pair data                       ... done (  0.0 sec)
Shell pair information
Shell pair cut-off parameter TPreSel        ...   2.5e-12
Total number of shell pairs                 ...    128778
Shell pairs after pre-screening             ...     80346
Total number of primitive shell pairs       ...    406373
Primitive shell pairs kept                  ...    157845
          la=0 lb=0:  19956 shell pairs
          la=1 lb=0:  23294 shell pairs
          la=1 lb=1:   6797 shell pairs
          la=2 lb=0:  11571 shell pairs
          la=2 lb=1:   6949 shell pairs
          la=2 lb=2:   1778 shell pairs
          la=3 lb=0:   5087 shell pairs
          la=3 lb=1:   3112 shell pairs
          la=3 lb=2:   1482 shell pairs
          la=3 lb=3:    320 shell pairs

Calculating one electron integrals          ... done (  0.1 sec)
done (  0.3 sec)
Calculating Nuclear repulsion               ... done (  0.0 sec) ENN=   5027.923872002101 Eh

Diagonalization of the overlap matrix:
Smallest eigenvalue                        ... 5.990e-06
Time for diagonalization                   ...    0.204 sec
Threshold for overlap eigenvalues          ... 1.000e-07
Number of eigenvalues below threshold      ... 0
Time for construction of square roots      ...    0.243 sec
Total time needed                          ...    0.479 sec

-------------------
DFT GRID GENERATION
-------------------

General Integration Accuracy     IntAcc      ... 4.959
Radial Grid Type                 RadialGrid  ... OptM3 with GC (2021)
Angular Grid (max. ang.)         AngularGrid ... 6 (Lebedev-590)
Angular grid pruning method      GridPruning ... 4 (adaptive)
Weight generation scheme         WeightScheme... mBecke (2022)
Basis function cutoff            BFCut       ... 1.0000e-11
Integration weight cutoff        WCut        ... 1.0000e-14
Partially contracted basis set               ... off
Rotationally invariant grid construction     ... off
Angular grids for H and He will be reduced by one unit
Core-polarized basis detected: some atoms will have their core
                               angular grid increased.

Total number of grid points                  ...   735544
Total number of batches                      ...    11519
Average number of points per batch           ...       63
Average number of grid points per atom       ...    12058

--------------------
COSX GRID GENERATION
--------------------

GRIDX 1
-------
General Integration Accuracy     IntAcc      ... 4.020
Radial Grid Type                 RadialGrid  ... OptM3 with GC (2021)
Angular Grid (max. ang.)         AngularGrid ... 2 (Lebedev-110)
Angular grid pruning method      GridPruning ... 4 (adaptive)
Weight generation scheme         WeightScheme... mBecke (2022)
Basis function cutoff            BFCut       ... 1.0000e-11
Integration weight cutoff        WCut        ... 1.0000e-14
Partially contracted basis set               ... on
Rotationally invariant grid construction     ... off
Angular grids for H and He will be reduced by one unit
Core-polarized basis detected: some atoms will have their core
                               angular grid increased.

Total number of grid points                  ...    84645
Total number of batches                      ...      692
Average number of points per batch           ...      122
Average number of grid points per atom       ...     1388
UseSFitting                                  ... on

GRIDX 2
-------
General Integration Accuracy     IntAcc      ... 4.338
Radial Grid Type                 RadialGrid  ... OptM3 with GC (2021)
Angular Grid (max. ang.)         AngularGrid ... 3 (Lebedev-194)
Angular grid pruning method      GridPruning ... 4 (adaptive)
Weight generation scheme         WeightScheme... mBecke (2022)
Basis function cutoff            BFCut       ... 1.0000e-11
Integration weight cutoff        WCut        ... 1.0000e-14
Partially contracted basis set               ... on
Rotationally invariant grid construction     ... off
Angular grids for H and He will be reduced by one unit
Core-polarized basis detected: some atoms will have their core
                               angular grid increased.

Total number of grid points                  ...   178897
Total number of batches                      ...     1431
Average number of points per batch           ...      125
Average number of grid points per atom       ...     2933
UseSFitting                                  ... on

GRIDX 3
-------
General Integration Accuracy     IntAcc      ... 4.871
Radial Grid Type                 RadialGrid  ... OptM3 with GC (2021)
Angular Grid (max. ang.)         AngularGrid ... 4 (Lebedev-302)
Angular grid pruning method      GridPruning ... 4 (adaptive)
Weight generation scheme         WeightScheme... mBecke (2022)
Basis function cutoff            BFCut       ... 1.0000e-11
Integration weight cutoff        WCut        ... 1.0000e-14
Partially contracted basis set               ... on
Rotationally invariant grid construction     ... off
Angular grids for H and He will be reduced by one unit
Core-polarized basis detected: some atoms will have their core
                               angular grid increased.

Total number of grid points                  ...   331192
Total number of batches                      ...     2615
Average number of points per batch           ...      126
Average number of grid points per atom       ...     5429
UseSFitting                                  ... on
Initializing property integral containers    ... done (  0.0 sec)

SHARK setup successfully completed in  15.4 seconds

Maximum memory used throughout the entire STARTUP-calculation: 244.5 MB


           ************************************************************
           *        Program running with 16 parallel MPI-processes    *
           *              working on a common directory               *
           ************************************************************
-------------------------------------------------------------------------------
                                 ORCA GUESS
                   Start orbitals & Density for SCF / CASSCF
-------------------------------------------------------------------------------

------------
SCF SETTINGS
------------
Hamiltonian:
 Density Functional     Method          .... DFT(GTOs)
 Exchange Functional    Exchange        .... PBE
   PBE kappa parameter   XKappa         ....  0.804000
   PBE mue parameter    XMuePBE         ....  0.219520
 Correlation Functional Correlation     .... PBE
   PBE beta parameter  CBetaPBE         ....  0.066725
 LDA part of GGA corr.  LDAOpt          .... PW91-LDA
 Gradients option       PostSCFGGA      .... off
 Hybrid DFT is turned on
   Fraction HF Exchange ScalHFX         ....  0.250000
   Scaling of DF-GGA-X  ScalDFX         ....  0.750000
   Scaling of DF-GGA-C  ScalDFC         ....  1.000000
   Scaling of DF-LDA-C  ScalLDAC        ....  1.000000
   Perturbative correction              ....  0.000000
   NL short-range parameter             ....  6.900000
 RI-approximation to the Coulomb term is turned on
   Number of AuxJ basis functions       .... 2117
   RIJ-COSX (HFX calculated with COS-X)).... on


General Settings:
 Integral files         IntName         .... MOPDUQ-S6
 Hartree-Fock type      HFTyp           .... UHF
 Total Charge           Charge          ....    0
 Multiplicity           Mult            ....    6
 Number of Electrons    NEL             ....  281
 Basis Dimension        Dim             .... 1305
 Nuclear Repulsion      ENuc            ....   5027.9238720021 Eh

Convergence Acceleration:
 AO-DIIS                CNVDIIS         .... on
   Start iteration      DIISMaxIt       ....    12
   Startup error        DIISStart       ....  0.200000
   # of expansion vecs  DIISMaxEq       ....     5
   Bias factor          DIISBfac        ....   1.050
   Max. coefficient     DIISMaxC        ....  10.000
 MO-DIIS                CNVKDIIS        .... off
 Trust-Rad. Augm. Hess. CNVTRAH         .... auto
   Auto Start mean grad. ratio tolernc. ....  1.125000
   Auto Start start iteration           ....    50
   Auto Start num. interpolation iter.  ....    10
   Max. Number of Micro iterations      ....    24
   Max. Number of Macro iterations      .... Maxiter - #DIIS iter
   Number of Davidson start vectors     ....     2
   Converg. threshold    (grad. norm)   ....   1.000e-05
   Grad. Scal. Fac. for Micro threshold ....   0.100
   Minimum threshold for Micro iter.    ....   1.000e-02
   NR start threshold (gradient norm)   ....   1.000e-04
   Initial trust radius                 ....   0.400
   Minimum AH scaling param. (alpha)    ....   1.000
   Maximum AH scaling param. (alpha)    .... 1000.000
   Quad. conv. algorithm                .... NR
   White noise on init. David. guess    .... on
   Maximum white noise                  ....   0.010
   Pseudo random numbers                .... off
   Inactive MOs                         .... canonical
   Orbital update algorithm             .... Taylor
   Preconditioner                       .... Diag
   Full preconditioner red. dimension   ....   250
 SOSCF                  CNVSOSCF        .... on
   Start iteration      SOSCFMaxIt      ....   150
   Startup grad/error   SOSCFStart      ....  0.003300
   Hessian update       SOSCFHessUp     .... L-BFGS
 Level Shifting         CNVShift        .... on
   Level shift para.    LevelShift      ....    0.2500
   Turn off err/grad.   ShiftErr        ....    0.0010
 Zerner damping         CNVZerner       .... off
 Static damping         CNVDamp         .... on
   Fraction old density DampFac         ....    0.7000
   Max. Damping (<1)    DampMax         ....    0.9800
   Min. Damping (>=0)   DampMin         ....    0.0000
   Turn off err/grad.   DampErr         ....    0.1000

SCF Procedure:
 Maximum # iterations   MaxIter         ....   125
 SCF integral mode      SCFMode         .... Direct
   Integral package                     .... SHARK and LIBINT hybrid scheme
 Reset frequency        DirectResetFreq ....    20
 Integral Threshold     Thresh          ....  2.500e-11 Eh
 Primitive CutOff       TCut            ....  2.500e-12 Eh

Convergence Tolerance:
 Convergence Check Mode ConvCheckMode   .... Total+1el-Energy
 Convergence forced     ConvForced      .... 0
 Energy Change          TolE            ....  1.000e-08 Eh
 1-El. energy change                    ....  1.000e-05 Eh
 Orbital Gradient       TolG            ....  1.000e-05
 Orbital Rotation angle TolX            ....  1.000e-05
 DIIS Error             TolErr          ....  5.000e-07

------------------------------
INITIAL GUESS: MODEL POTENTIAL
------------------------------
Loading Hartree-Fock densities                     ... done
Calculating cut-offs                               ... done
Initializing the effective Hamiltonian             ... done
Setting up the integral package (SHARK)            ... done
done (   0.7 sec)
Making the grid                                    ... done (   0.5 sec)
Mapping shells                                     ... done
Starting the XC term evaluation                    ... done (   0.4 sec)
  promolecular density results
     # of electrons  =    281.004274287
     EX              =   -268.668170221
     EC              =     -9.904093940
     EX+EC           =   -278.572264162
done (   0.2 sec)
done (   0.2 sec)
Back transforming the eigenvectors                 ... done (   0.1 sec)
done
                      ------------------
                      INITIAL GUESS DONE (   2.5 sec)
                      ------------------
             **** ENERGY FILE WAS UPDATED (MOPDUQ-S6.en.tmp) ****
Finished Guess after   3.4 sec
Maximum memory used throughout the entire GUESS-calculation: 149.8 MB


           ************************************************************
           *        Program running with 16 parallel MPI-processes    *
[...]
169:   3137.30   0.003466   17.52  0.000345  (-0.017128  0.007039 -0.001360)
170:   3137.35   0.002967   14.99  0.000295  (-0.002766  0.016884  0.001551)
171:   3181.63   0.001741    8.80  0.000171  (-0.001247 -0.012696 -0.002824)
172:   3181.66   0.001852    9.36  0.000182  (-0.011638  0.000122  0.006799)
173:   3181.71   0.002298   11.62  0.000225  ( 0.005499 -0.002703  0.013707)
174:   3206.01   0.001023    5.17  0.000100  ( 0.003485  0.009189  0.001723)
175:   3206.11   0.001090    5.51  0.000106  (-0.007637  0.006721 -0.001610)
176:   3206.14   0.000733    3.70  0.000071  (-0.007783 -0.002307  0.002328)
177:   3213.15   0.001189    6.01  0.000115  (-0.006069  0.002001  0.008641)
178:   3213.19   0.001144    5.78  0.000111  ( 0.001465 -0.006405  0.008240)
179:   3213.23   0.001143    5.77  0.000111  (-0.005055 -0.004218 -0.008223)
180:   3223.19   0.003220   16.27  0.000312  (-0.008575 -0.015383 -0.001249)
181:   3223.25   0.002725   13.77  0.000264  (-0.015622  0.004061  0.001820)
182:   3223.34   0.001623    8.20  0.000157  ( 0.006431 -0.010441  0.002602)

* The epsilon (eps) is given for a Dirac delta lineshape.
** The dipole moment derivative (T) already includes vibrational overlap.

The first frequency considered to be a vibration is 6
The total number of vibrations considered is 177


--------------------------
THERMOCHEMISTRY AT 298.15K
--------------------------

Temperature         ...   298.15 K
Pressure            ...     1.00 atm
Total Mass          ...   542.35 AMU
Quasi RRHO          ...     True
Cut-Off Frequency   ...     1.00 cm^-1

Throughout the following assumptions are being made:
  (1) The electronic state is orbitally nondegenerate
      but the spin degeneracy is treated
  (2) There are no thermally accessible electronically excited states
  (3) Hindered rotations indicated by low frequency modes are not
      treated as such but are treated as vibrations and this may
      cause some error
  (4) All equations used are the standard statistical mechanics
      equations for an ideal gas
  (5) All vibrations are strictly harmonic

freq.      12.90  E(vib)   ...       0.57 
freq.      13.24  E(vib)   ...       0.57 
freq.      21.22  E(vib)   ...       0.56 
freq.      37.11  E(vib)   ...       0.54 
freq.      37.36  E(vib)   ...       0.54 
freq.      40.77  E(vib)   ...       0.54 
freq.      82.60  E(vib)   ...       0.48 
freq.      82.67  E(vib)   ...       0.48 
freq.      86.44  E(vib)   ...       0.48 
freq.     100.95  E(vib)   ...       0.46 
freq.     101.18  E(vib)   ...       0.46 
freq.     108.88  E(vib)   ...       0.45 
freq.     112.47  E(vib)   ...       0.45 
freq.     112.63  E(vib)   ...       0.45 
freq.     121.37  E(vib)   ...       0.44 
freq.     137.21  E(vib)   ...       0.42 
freq.     137.34  E(vib)   ...       0.42 
freq.     140.29  E(vib)   ...       0.41 
freq.     164.95  E(vib)   ...       0.39 
freq.     180.44  E(vib)   ...       0.37 
freq.     180.71  E(vib)   ...       0.37 
freq.     210.62  E(vib)   ...       0.34 
freq.     213.13  E(vib)   ...       0.34 
freq.     213.26  E(vib)   ...       0.34 
freq.     227.80  E(vib)   ...       0.33 
freq.     228.10  E(vib)   ...       0.33 
freq.     245.73  E(vib)   ...       0.31 
freq.     262.48  E(vib)   ...       0.29 
freq.     278.63  E(vib)   ...       0.28 
freq.     278.70  E(vib)   ...       0.28 
freq.     301.62  E(vib)   ...       0.26 
freq.     313.02  E(vib)   ...       0.25 
freq.     313.07  E(vib)   ...       0.25 
freq.     381.80  E(vib)   ...       0.21 
freq.     381.95  E(vib)   ...       0.21 
freq.     384.45  E(vib)   ...       0.20 
freq.     404.48  E(vib)   ...       0.19 
freq.     404.49  E(vib)   ...       0.19 
freq.     410.99  E(vib)   ...       0.19 
freq.     456.90  E(vib)   ...       0.16 
freq.     456.95  E(vib)   ...       0.16 
freq.     457.50  E(vib)   ...       0.16 
freq.     542.98  E(vib)   ...       0.12 
freq.     543.01  E(vib)   ...       0.12 
freq.     543.39  E(vib)   ...       0.12 
freq.     561.43  E(vib)   ...       0.11 
freq.     561.49  E(vib)   ...       0.11 
freq.     563.68  E(vib)   ...       0.11 
freq.     614.73  E(vib)   ...       0.10 
freq.     614.88  E(vib)   ...       0.10 
freq.     623.01  E(vib)   ...       0.09 
freq.     676.54  E(vib)   ...       0.08 
freq.     676.57  E(vib)   ...       0.08 
freq.     678.26  E(vib)   ...       0.08 
freq.     711.18  E(vib)   ...       0.07 
freq.     711.21  E(vib)   ...       0.07 
freq.     712.31  E(vib)   ...       0.07 
freq.     742.54  E(vib)   ...       0.06 
freq.     742.86  E(vib)   ...       0.06 
freq.     743.00  E(vib)   ...       0.06 
freq.     770.11  E(vib)   ...       0.05 
freq.     770.15  E(vib)   ...       0.05 
freq.     770.18  E(vib)   ...       0.05 
freq.     795.69  E(vib)   ...       0.05 
freq.     795.72  E(vib)   ...       0.05 
freq.     796.30  E(vib)   ...       0.05 
freq.     872.06  E(vib)   ...       0.04 
freq.     872.77  E(vib)   ...       0.04 
freq.     872.83  E(vib)   ...       0.04 
freq.     884.77  E(vib)   ...       0.04 
freq.     884.78  E(vib)   ...       0.04 
freq.     884.89  E(vib)   ...       0.04 
freq.     885.29  E(vib)   ...       0.04 
freq.     885.36  E(vib)   ...       0.04 
freq.     890.26  E(vib)   ...       0.04 
freq.     946.60  E(vib)   ...       0.03 
freq.     946.64  E(vib)   ...       0.03 
freq.     949.61  E(vib)   ...       0.03 
freq.     954.70  E(vib)   ...       0.03 
freq.     954.72  E(vib)   ...       0.03 
freq.     954.79  E(vib)   ...       0.03 
freq.     980.15  E(vib)   ...       0.02 
freq.     980.22  E(vib)   ...       0.02 
freq.     980.25  E(vib)   ...       0.02 
freq.     989.92  E(vib)   ...       0.02 
freq.     989.92  E(vib)   ...       0.02 
freq.     990.78  E(vib)   ...       0.02 
freq.    1038.44  E(vib)   ...       0.02 
freq.    1038.47  E(vib)   ...       0.02 
freq.    1039.28  E(vib)   ...       0.02 
freq.    1059.86  E(vib)   ...       0.02 
freq.    1059.87  E(vib)   ...       0.02 
freq.    1060.51  E(vib)   ...       0.02 
freq.    1070.29  E(vib)   ...       0.02 
freq.    1070.32  E(vib)   ...       0.02 
freq.    1070.79  E(vib)   ...       0.02 
freq.    1111.71  E(vib)   ...       0.01 
freq.    1111.78  E(vib)   ...       0.01 
freq.    1113.26  E(vib)   ...       0.01 
freq.    1127.43  E(vib)   ...       0.01 
freq.    1127.44  E(vib)   ...       0.01 
freq.    1127.75  E(vib)   ...       0.01 
freq.    1165.37  E(vib)   ...       0.01 
freq.    1165.45  E(vib)   ...       0.01 
freq.    1165.47  E(vib)   ...       0.01 
freq.    1180.24  E(vib)   ...       0.01 
freq.    1180.29  E(vib)   ...       0.01 
freq.    1181.00  E(vib)   ...       0.01 
freq.    1224.64  E(vib)   ...       0.01 
freq.    1224.68  E(vib)   ...       0.01 
freq.    1226.04  E(vib)   ...       0.01 
freq.    1249.02  E(vib)   ...       0.01 
freq.    1249.04  E(vib)   ...       0.01 
freq.    1252.72  E(vib)   ...       0.01 
freq.    1273.31  E(vib)   ...       0.01 
freq.    1273.34  E(vib)   ...       0.01 
freq.    1275.43  E(vib)   ...       0.01 
freq.    1299.51  E(vib)   ...       0.01 
freq.    1299.54  E(vib)   ...       0.01 
freq.    1301.81  E(vib)   ...       0.01 
freq.    1322.92  E(vib)   ...       0.01 
freq.    1322.93  E(vib)   ...       0.01 
freq.    1331.63  E(vib)   ...       0.01 
freq.    1378.26  E(vib)   ...       0.01 
freq.    1378.30  E(vib)   ...       0.01 
freq.    1378.40  E(vib)   ...       0.01 
freq.    1402.68  E(vib)   ...       0.00 
freq.    1402.71  E(vib)   ...       0.00 
freq.    1408.10  E(vib)   ...       0.00 
freq.    1437.40  E(vib)   ...       0.00 
freq.    1437.60  E(vib)   ...       0.00 
freq.    1437.63  E(vib)   ...       0.00 
freq.    1491.40  E(vib)   ...       0.00 
freq.    1491.42  E(vib)   ...       0.00 
freq.    1493.27  E(vib)   ...       0.00 
freq.    1502.66  E(vib)   ...       0.00 
freq.    1502.70  E(vib)   ...       0.00 
freq.    1505.07  E(vib)   ...       0.00 
freq.    1512.57  E(vib)   ...       0.00 
freq.    1512.61  E(vib)   ...       0.00 
freq.    1520.81  E(vib)   ...       0.00 
freq.    1525.45  E(vib)   ...       0.00 
freq.    1525.46  E(vib)   ...       0.00 
freq.    1528.72  E(vib)   ...       0.00 
freq.    1596.41  E(vib)   ...       0.00 
freq.    1596.48  E(vib)   ...       0.00 
freq.    1597.44  E(vib)   ...       0.00 
freq.    1655.19  E(vib)   ...       0.00 
freq.    1655.27  E(vib)   ...       0.00 
freq.    1658.23  E(vib)   ...       0.00 
freq.    1680.33  E(vib)   ...       0.00 
freq.    1680.40  E(vib)   ...       0.00 
freq.    1697.85  E(vib)   ...       0.00 
freq.    3057.70  E(vib)   ...       0.00 
freq.    3058.90  E(vib)   ...       0.00 
freq.    3059.04  E(vib)   ...       0.00 
freq.    3062.16  E(vib)   ...       0.00 
freq.    3062.29  E(vib)   ...       0.00 
freq.    3062.50  E(vib)   ...       0.00 
freq.    3099.42  E(vib)   ...       0.00 
freq.    3100.01  E(vib)   ...       0.00 
freq.    3100.26  E(vib)   ...       0.00 
freq.    3137.20  E(vib)   ...       0.00 
freq.    3137.30  E(vib)   ...       0.00 
freq.    3137.35  E(vib)   ...       0.00 
freq.    3181.63  E(vib)   ...       0.00 
freq.    3181.66  E(vib)   ...       0.00 
freq.    3181.71  E(vib)   ...       0.00 
freq.    3206.01  E(vib)   ...       0.00 
freq.    3206.11  E(vib)   ...       0.00 
freq.    3206.14  E(vib)   ...       0.00 
freq.    3213.15  E(vib)   ...       0.00 
freq.    3213.19  E(vib)   ...       0.00 
freq.    3213.23  E(vib)   ...       0.00 
freq.    3223.19  E(vib)   ...       0.00 
freq.    3223.25  E(vib)   ...       0.00 
freq.    3223.34  E(vib)   ...       0.00 

------------
INNER ENERGY
------------

The inner energy is: U= E(el) + E(ZPE) + E(vib) + E(rot) + E(trans)
    E(el)   - is the total energy from the electronic structure calculation
              = E(kin-el) + E(nuc-el) + E(el-el) + E(nuc-nuc)
    E(ZPE)  - the the zero temperature vibrational energy from the frequency calculation
    E(vib)  - the the finite temperature correction to E(ZPE) due to population
              of excited vibrational states
    E(rot)  - is the rotational thermal energy
    E(trans)- is the translational thermal energy

Summary of contributions to the inner energy U:
Electronic energy                ...  -2921.29375008 Eh
Zero point energy                ...      0.47426908 Eh     297.61 kcal/mol
Thermal vibrational correction   ...      0.02903723 Eh      18.22 kcal/mol
Thermal rotational correction    ...      0.00141627 Eh       0.89 kcal/mol
Thermal translational correction ...      0.00141627 Eh       0.89 kcal/mol
-----------------------------------------------------------------------
Total thermal energy                  -2920.78761122 Eh


Summary of corrections to the electronic energy:
(perhaps to be used in another calculation)
Total thermal correction                  0.03186978 Eh      20.00 kcal/mol
Non-thermal (ZPE) correction              0.47426908 Eh     297.61 kcal/mol
-----------------------------------------------------------------------
Total correction                          0.50613886 Eh     317.61 kcal/mol


--------
ENTHALPY
--------

The enthalpy is H = U + kB*T
                kB is Boltzmann's constant
Total thermal energy              ...  -2920.78761122 Eh 
Thermal Enthalpy correction       ...      0.00094421 Eh       0.59 kcal/mol
-----------------------------------------------------------------------
Total Enthalpy                    ...  -2920.78666701 Eh


Note: Only C1 symmetry has been detected, increase convergence thresholds 
      if your molecule has a higher symmetry. Symmetry factor of 1.0 is   
      used for the rotational entropy correction. 
 

Note: Rotational entropy computed according to Herzberg 
Infrared and Raman Spectra, Chapter V,1, Van Nostrand Reinhold, 1945 
Point Group:  C1, Symmetry Number:   1  
Rotational constants in cm-1:     0.003709     0.003693     0.002541 

Vibrational entropy computed according to the QRRHO of S. Grimme
Chem.Eur.J. 2012 18 9955 using a reference frequency of 100.0 cm-1


-------
ENTROPY
-------

The entropy contributions are T*S = T*(S(el)+S(vib)+S(rot)+S(trans))
     S(el)   - electronic entropy
     S(vib)  - vibrational entropy
     S(rot)  - rotational entropy
     S(trans)- translational entropy
The entropies will be listed as multiplied by the temperature to get
units of energy

Electronic entropy                ...      0.00169175 Eh      1.06 kcal/mol
Vibrational entropy               ...      0.05288094 Eh     33.18 kcal/mol
Rotational entropy                ...      0.01761821 Eh     11.06 kcal/mol
Translational entropy             ...      0.02126580 Eh     13.34 kcal/mol
-----------------------------------------------------------------------
Final entropy term                ...      0.09345669 Eh     58.64 kcal/mol

In case the symmetry of your molecule has not been determined correctly
or in case you have a reason to use a different symmetry number we print 
out the resulting rotational entropy values for sn=1,12:

 non-linear molecules -----------------------------------
|  sn= 1 | S(rot)=       0.01761821 Eh     11.06 kcal/mol|
|  sn= 2 | S(rot)=       0.01696375 Eh     10.64 kcal/mol|
|  sn= 3 | S(rot)=       0.01658092 Eh     10.40 kcal/mol|
|  sn= 4 | S(rot)=       0.01630929 Eh     10.23 kcal/mol|
|  sn= 5 | S(rot)=       0.01609861 Eh     10.10 kcal/mol|
|  sn= 6 | S(rot)=       0.01592646 Eh      9.99 kcal/mol|
|  sn= 7 | S(rot)=       0.01578091 Eh      9.90 kcal/mol|
|  sn= 8 | S(rot)=       0.01565484 Eh      9.82 kcal/mol|
|  sn= 9 | S(rot)=       0.01554363 Eh      9.75 kcal/mol|
|  sn=10 | S(rot)=       0.01544415 Eh      9.69 kcal/mol|
|  sn=11 | S(rot)=       0.01535416 Eh      9.63 kcal/mol|
|  sn=12 | S(rot)=       0.01527200 Eh      9.58 kcal/mol|
 linear molecules ---------------------------------------
|  Dinfh | S(rot)=       0.01096749 Eh      6.88 kcal/mol|
|  Cinfv | S(rot)=       0.01162194 Eh      7.29 kcal/mol|
 --------------------------------------------------------


-------------------
GIBBS FREE ENERGY
-------------------

The Gibbs free energy is G = H - T*S

Total enthalpy                    ...  -2920.78666701 Eh 
Total entropy correction          ...     -0.09345669 Eh    -58.64 kcal/mol
-----------------------------------------------------------------------
Final Gibbs free energy         ...  -2920.88012370 Eh

For completeness - the Gibbs free energy minus the electronic energy
G-E(el)                           ...      0.41362638 Eh    259.55 kcal/mol


Maximum memory used throughout the entire PROP-calculation: 2187.3 MB

--------------------------------
SUGGESTED CITATIONS FOR THIS RUN
--------------------------------

Below you find a list of papers that are relevant to this ORCA run
We neither can nor want to force you to cite these papers, but we appreciate if you do
You receive ORCA, which is the product of decades of hard work by many enthusiastic individuals, for free
The only thing we kindly ask in return is that you cite our papers,
We deeply appreciate it, if you show your appreciation for ORCA by not just citing the generic ORCA reference.

Please note that relegating all ORCA citations to the supporting information does *not* help us.
SI sections are not indexed - citations you put there will not count into any citation statistics
But we need these citations in order to attract the funding resources that allow us to do what we are doing

Therefore, if you are a happy ORCA user, please consider citing a few of the papers listed below in the main body of your paper

In addition to the list printed below, the program has created the file MOPDUQ-S6.bibtex that contains the list in bibtex format
You can import this file easily into all common literature databanks and citation aid programs


List of essential papers. We consider these as the minimum necessary citations

  1. Neese,F.
     Software update: the ORCA program system, version 5.0
     WIRES Comput. Molec. Sci., 2022 12(1)e1606
     doi.org/10.1002/wcms.1606

List of papers to cite with high priority. The work reported in these papers was absolutely
necessary for this run to complete.
Our perspective: the developers of density functionals and basis sets usually get cited in chemistry papers
Good! But without the algorithms to do something with them, the functionals or basis sets would not do anything.
Hence, in our opinion, the algorithm design and method developments papers are equally worthy of getting cited

  1. Neese,F.
     An improvement of the resolution of the identity approximation for the formation of the Coulomb matrix
     J. Comp. Chem., 2003 24(14)1740-1747
     doi.org/10.1002/jcc.10318
  2. Neese,F.; Wennmohs,F.; Hansen,A.; Becker,U.
     Efficient, approximate and parallel Hartree-Fock and hybrid DFT calculations. A 'chain-of-spheres' algorithm for the Hartree-Fock exchange
     Chem. Phys., 2009 356(1-3)98-109
     doi.org/10.1016/j.chemphys.2008.10.036
  3. Bykov,D.; Petrenko,T.; Izsak,R.; Kossmann,S.; Becker,U.; Valeev,E.; Neese,F.
     Efficient implementation of the analytic second derivatives of Hartree-Fock and hybrid DFT energies: a detailed analysis of different approximations
     Molec. Phys., 2015 113 1961-1977
     doi.org/10.1080/00268976.2015.1025114
  4. Helmich-Paris,B.; de Souza,B.; Neese,F.; Izsák,R.
     An improved chain of spheres for exchange algorithm
     J. Chem. Phys., 2021 155 104109
     doi.org/doi: 10.1063/5.0058766.
  5. Neese,F.
     The SHARK Integral Generation and Digestion System
     J. Comp. Chem., 2022  1-16
     doi.org/10.1002/jcc.26942

List of suggested additional citations. These are papers that are important in the 'surrounding' of 
of this run, or papers that preceded the highly important papers. If you like your results we are grateful for a citation.

  1. Izsak,R.; Neese,F.
     An overlap fitted chain of spheres exchange method
     J. Chem. Phys., 2011 135 144105
     doi.org/10.1063/1.3646921
  2. Izsak,R.; Hansen,A.; Neese,F.
     The resolution of identity and chain of spheres approximations for the LPNO-CCSD singles Fock term
     Molec. Phys., 2012 110 2413-2417
     doi.org/10.1080/00268976.2012.687466
  3. Neese,F.
     The ORCA program system
     WIRES Comput. Molec. Sci., 2012 2(1)73-78
     doi.org/10.1002/wcms.81
  4. Izsak,R.; Neese,F.; Klopper,W.
     Robust fitting techniques in the chain of spheres approximation to the Fock exchange: The role of the complementary space
     J. Chem. Phys., 2013 139 
     doi.org/10.1063/1.4819264
  5. Neese,F.
     Software update: the ORCA program system, version 4.0
     WIRES Comput. Molec. Sci., 2018 8(1)1-6
     doi.org/10.1002/wcms.1327
  6. Neese,F.; Wennmohs,F.; Becker,U.; Riplinger,C.
     The ORCA quantum chemistry program package
     J. Chem. Phys., 2020 152 Art. No. L224108
     doi.org/10.1063/5.0004608

List of optional additional citations

  1. Neese,F.
     Approximate second-order SCF convergence for spin unrestricted wavefunctions
     Chem. Phys. Lett., 2000 325(1-3)93-98
     doi.org/10.1016/s0009-2614(00)00662-x

Timings for individual modules:

Sum of individual times          ...    33523.817 sec (= 558.730 min)
Startup calculation              ...      349.802 sec (=   5.830 min)   1.0 %
SCF iterations                   ...     7917.467 sec (= 131.958 min)  23.6 %
Property integrals               ...     7601.750 sec (= 126.696 min)  22.7 %
SCF Response                     ...    13625.971 sec (= 227.100 min)  40.6 %
Property calculations            ...     2144.467 sec (=  35.741 min)   6.4 %
SCF Gradient evaluation          ...     1883.127 sec (=  31.385 min)   5.6 %
Geometry relaxation              ...        1.232 sec (=   0.021 min)   0.0 %
                             ****ORCA TERMINATED NORMALLY****
TOTAL RUN TIME: 0 days 9 hours 19 minutes 31 seconds 757 msec
