
                                 *****************
                                 * O   R   C   A *
                                 *****************

                                            #,                                       
                                            ###                                      
                                            ####                                     
                                            #####                                    
                                            ######                                   
                                           ########,                                 
                                     ,,################,,,,,                         
                               ,,#################################,,                 
                          ,,##########################################,,             
                       ,#########################################, ''#####,          
                    ,#############################################,,   '####,        
                  ,##################################################,,,,####,       
                ,###########''''           ''''###############################       
              ,#####''   ,,,,##########,,,,          '''####'''          '####       
            ,##' ,,,,###########################,,,                        '##       
           ' ,,###''''                  '''############,,,                           
         ,,##''                                '''############,,,,        ,,,,,,###''
      ,#''                                            '''#######################'''  
     '                                                          ''''####''''         
             ,#######,   #######,   ,#######,      ##                                
            ,#'     '#,  ##    ##  ,#'     '#,    #''#        ,####,   ,####,        
            ##       ##  ##   ,#'  ##            #'  '#       #'       #'  '#        
            ##       ##  #######   ##           ,######,      #####,   #    #        
            '#,     ,#'  ##    ##  '#,     ,#' ,#      #,     #,   #   #,  ,#        
             '#######'   ##     ##  '#######'  #'      '#     '####' # '####'        



                #########################################################
                #                        -***-                          #
                #          Department of theory and spectroscopy        #
                #                                                       #
                #                      Frank Neese                      #
                #                                                       #
                #     Directorship, Architecture, Infrastructure        #
                #                    SHARK, DRIVERS                     #
                #        Core code/Algorithms in most modules           #
                #                                                       #
                #        Max Planck Institute fuer Kohlenforschung      #
                #                Kaiser Wilhelm Platz 1                 #
                #                 D-45470 Muelheim/Ruhr                 #
                #                      Germany                          #
                #                                                       #
                #                  All rights reserved                  #
                #                        -***-                          #
                #########################################################


                         Program Version 6.0.1  -  RELEASE   -


 With contributions from (in alphabetic order):
[Max-Planck-Institut fuer Kohlenforschung]                               
  Daniel Aravena         : Magnetic Suceptibility                        
  Michael Atanasov       : Ab Initio Ligand Field Theory (pilot matlab implementation)
  Alexander A. Auer      : GIAO ZORA, VPT2 properties, NMR spectrum      
  Ute Becker             : All parallelization in ORCA, NUMFREQ, NUMCALC 
  Giovanni Bistoni       : ED, misc. LED, open-shell LED, HFLD           
  Martin Brehm           : Molecular dynamics                            
  Dmytro Bykov           : pre 5.0 version of the SCF Hessian            
  Marcos Casanova-Páez   : Triplet and SCS-CIS(D). UHF-(DLPNO)-IP/EA/STEOM-CCSD. UHF-CVS-IP/STEOM-CCSD   
  Vijay G. Chilkuri      : MRCI spin determinant printing, contributions to CSF-ICE 
  Pauline Colinet        : FMM embedding                                 
  Dipayan Datta          : RHF DLPNO-CCSD density                        
  Achintya Kumar Dutta   : EOM-CC, STEOM-CC                              
  Nicolas Foglia         : Exact transition moments, OPA infrastructure, MCD improvements    
  Dmitry Ganyushin       : Spin-Orbit,Spin-Spin,Magnetic field MRCI      
  Miquel Garcia-Rates    : C-PCM and meta-GGA Hessian, CCSD/C-PCM, Gaussian charge scheme 
  Tiago L. C. Gouveia    : GS-ROHF, GS-ROCIS                             
  Yang Guo               : DLPNO-NEVPT2, F12-NEVPT2, CIM, IAO-localization        
  Andreas Hansen         : Spin unrestricted coupled pair/coupled cluster methods 
  Ingolf Harden          : AUTO-CI MPn and infrastructure                
  Benjamin Helmich-Paris : MC-RPA, TRAH-(SCF,CASSCF), AVAS, COSX integrals, SCF dyn. polar. 
  Lee Huntington         : MR-EOM, pCC                                   
  Robert Izsak           : Overlap fitted RIJCOSX, COSX-SCS-MP3, EOM     
  Riya Kayal             : Wick's Theorem for AUTO-CI, AUTO-CI UHF-CCSDT 
  Emily Kempfer          : AUTO-CI, RHF CISDT and CCSDT                  
  Christian Kollmar      : KDIIS, OOCD, Brueckner-CCSD(T), CCSD density, CASPT2, CASPT2-K, improved NEVPT2 
  Axel Koslowski         : Symmetry handling                             
  Simone Kossmann        : meta-GGA functionals, TD-DFT gradient, OOMP2, (MP2 Hessian; deprecated post 5.0) 
  Lucas Lang             : DCDCAS                                        
  Marvin Lechner         : AUTO-CI (C++ implementation), FIC-MRCC        
  Spencer Leger          : CASSCF response                               
  Dagmar Lenk            : GEPOL surface, SMD, ORCA-2-JSON               
  Dimitrios Liakos       : Extrapolation schemes; Compound Job, initial MDCI parallelization 
  Dimitrios Manganas     : Further ROCIS development; embedding schemes. LFT, Crystal Embedding 
  Dimitrios Pantazis     : SARC Basis sets                               
  Anastasios Papadopoulos: AUTO-CI, single reference methods and gradients 
  Taras Petrenko         : pre 6.0 DFT Hessian and TD-DFT gradient, (ASA, deprecated), ECA, 1-Electron XAS/XES, NRVS 
  Peter Pinski           : DLPNO-MP2, DLPNO-MP2 Gradient                 
  Christoph Reimann      : Effective Core Potentials                     
  Marius Retegan         : Local ZFS, SOC                                
  Christoph Riplinger    : Optimizer, TS searches, QM/MM, DLPNO-CCSD(T), (RO)-DLPNO pert. Triples 
  Michael Roemelt        : Original ROCIS implementation                 
  Masaaki Saitow         : Open-shell DLPNO-CCSD energy and density      
  Barbara Sandhoefer     : DKH picture change effects                    
  Kantharuban Sivalingam : CASSCF convergence/infrastructure, NEVPT2 and variants, FIC-MRCI 
  Bernardo de Souza      : ESD, SOC TD-DFT                               
  Georgi L. Stoychev     : AutoAux, RI-MP2 NMR, DLPNO-MP2 response, X2C  
  Van Anh Tran           : RI-MP2 g-tensors                              
  Willem Van den Heuvel  : Paramagnetic NMR                              
  Zikuan Wang            : NOTCH, Electric field optimization            
  Frank Wennmohs         : Technical directorship and infrastructure     
  Hang Xu                : AUTO-CI-Response properties                   
                                                                         
[FACCTs GmbH]                                                            
  Markus Bursch, Miquel Garcia-Rates, Christoph Riplinger, Bernardo de Souza, Georgi L. Stoychev 
                                                                 
  APM, Basis sets (HGBS, AHGBS, def-TZVP (Ac-Lr), def2-XVPD (La-Lu)), CI-OPT, improved COSX, DLPNO-Multilevel,           
  DOCKER, DRACO, updates on ESD, GOAT, IRC, LR-CPCM, MBIS, meta-GGA TD-DFT gradient, ML-optimized integration grids, 
  MM, NACMEs, nearIR, NEB, NEB-TS, NL-DFT gradient (VV10), 2- and 3-layer-ONIOM, interface openCOSMO-RS, QMMM,   
  Crystal-QMMM, SF, symmetry and pop. for TD-DFT, r2SCAN hybrids, SOLVATOR                                   
                                                                         
[Other institutions]                                                     
  V. Asgeirsson          : NEB                                           
  Christoph Bannwarth    : sTDA-DFT, sTD-DFT, PBEh-3c, B97-3c, D3        
  Sebastian Ehlert       : rSCAN, r2SCAN, r2SCAN-3c, D4, dhf basis sets  
  Marvin Friede          : D4 for Fr, Ra, Ac-Lr                          
  Lars Goerigk           : TD-DFT with DH, B97 family of functionals     
  Stefan Grimme          : VdW corrections, initial TS optimization, DFT functionals, gCP, sTDA/sTD-DF 
  Waldemar Hujo          : DFT-NL                                        
  H. Jonsson             : NEB                                           
  Holger Kruse           : gCP                                           
  Marcel Mueller         : wB97X-3c, vDZP basis set                      
  Hagen Neugebauer       : wr2SCAN                                       
  Tobias Risthaus        : range-separated hybrid DFT                    
  Lukas Wittmann         : regularized MP2, r2SCAN double-hybrids, wr2SCAN        
                                                                         
We gratefully acknowledge several colleagues who have allowed us to      
interface, adapt or use parts of their codes:                            
  Ed Valeev, F. Pavosevic, A. Kumar             : LibInt (2-el integral package), F12 methods 
  Garnet Chan, S. Sharma, J. Yang, R. Olivares  : DMRG                   
  Ulf Ekstrom                                   : XCFun DFT Library      
  Mihaly Kallay                                 : mrcc  (arbitrary order and MRCC methods)
  Frank Weinhold                                : gennbo (NPA and NBO analysis)           
  Simon Mueller                                 : openCOSMO-RS                            
  Christopher J. Cramer and Donald G. Truhlar   : smd solvation model                     
  S Lehtola, MJT Oliveira, MAL Marques          : LibXC Library                           
  Liviu Ungur et al                             : ANISO software                          


 Your calculation uses the libint2 library for the computation of 2-el integrals
 For citations please refer to: http://libint.valeyev.net

 Your ORCA version has been built with support for libXC version: 6.2.2
 For citations please refer to: https://libxc.gitlab.io

 This ORCA versions uses:
   CBLAS   interface :  Fast vector & matrix operations
   LAPACKE interface :  Fast linear algebra routines
   SCALAPACK package :  Parallel linear algebra routines
   Shared memory     :  Shared parallel matrices
   BLAS/LAPACK       :  OpenBLAS 0.3.27  USE64BITINT DYNAMIC_ARCH NO_AFFINITY Cooperlake SINGLE_THREADED
        Core in use  :  Cooperlake
   Copyright (c) 2011-2014, The OpenBLAS Project


NOTE: MaxCore=3600 MB was set to SCF,MP2,MDCI,CIPSI,MRCI and CIS
      => If you want to overwrite this, your respective input block should be placed after the MaxCore statement
Warning: RI is on but no J-basis has been assigned. Assigning Def2/J (nothing to worry about!)
================================================================================

----- Orbital basis set information -----
Your calculation utilizes the basis: def2-TZVP
   F. Weigend and R. Ahlrichs, Phys. Chem. Chem. Phys. 7, 3297 (2005).

----- AuxJ basis set information -----
Your calculation utilizes the auxiliary basis: def2/J
   F. Weigend, Phys. Chem. Chem. Phys. 8, 1057 (2006).

================================================================================
                                        WARNINGS
                       Please study these warnings very carefully!
================================================================================


WARNING: your system is open-shell and RHF/RKS was chosen
  ===> : WILL SWITCH to UHF/UKS


WARNING: Geometry Optimization
  ===> : Switching off AutoStart
         For restart on a previous wavefunction, please use MOREAD

================================================================================
                                       INPUT FILE
================================================================================
NAME = OQODEE-S6.inp
|  1> ! PBE0 def2-TZVP  Opt Freq DEFGRID3
|  2> 
|  3> %maxcore 3600
|  4> 
|  5> %pal
|  6>     nprocs 16
|  7> end
|  8> 
|  9> *xyz 0 6
| 10> Fe 0.3197 2.2889 9.9224
| 11> Cl -1.8556 2.0961 9.2673
| 12> Cl 1.0734 3.038 7.837
| 13> Cl -0.2166 1.4964 12.1632
| 14> N 2.2983 2.2009 10.678
| 15> N 2.7392 3.3088 11.3806
| 16> N 1.0899 0.3253 9.3981
| 17> N 1.4364 5.5526 13.4242
| 18> O 0.6542 4.103 10.7225
| 19> C 2.9716 1.1294 10.5972
| 20> H 3.8086 1.0402 10.993
| 21> C 2.3449 0.0314 9.8335
| 22> C 2.9978 -1.136 9.5053
| 23> H 3.8523 -1.3143 9.8253
| 24> C 2.3346 -2.0408 8.6823
| 25> H 2.7451 -2.8415 8.4464
| 26> C 1.0623 -1.7502 8.2138
| 27> H 0.6154 -2.3462 7.6564
| 28> C 0.4706 -0.5581 8.5882
| 29> H -0.3802 -0.3583 8.2716
| 30> C 1.7783 4.2202 11.3278
| 31> C 2.0586 5.5064 12.0503
| 32> H 1.7172 6.2461 11.5241
| 33> H 3.0181 5.6187 12.1344
| 34> C -0.0467 5.5427 13.3648
| 35> H -0.4027 5.5692 14.2555
| 36> H -0.3449 4.7436 12.9244
| 37> H -0.3528 6.3105 12.8766
| 38> C 1.882 4.3672 14.2175
| 39> H 2.8398 4.3606 14.2736
| 40> H 1.5816 3.5631 13.7854
| 41> H 1.5101 4.4134 15.0999
| 42> C 1.9242 6.8009 14.107
| 43> H 2.8826 6.7926 14.1433
| 44> H 1.5711 6.8356 14.9993
| 45> H 1.6286 7.5703 13.6172
| 46> *
| 47> 
| 48>                          ****END OF INPUT****
================================================================================

                       *****************************
                       * Geometry Optimization Run *
                       *****************************

Geometry optimization settings:
Update method            Update   .... BFGS
Choice of coordinates    CoordSys .... (2022) Redundant Internals
Initial Hessian          InHess   .... Almloef's Model
Max. no of cycles        MaxIter  .... 108

Convergence Tolerances:
Energy Change            TolE     ....  5.0000e-06 Eh
Max. Gradient            TolMAXG  ....  3.0000e-04 Eh/bohr
RMS Gradient             TolRMSG  ....  1.0000e-04 Eh/bohr
Max. Displacement        TolMAXD  ....  4.0000e-03 bohr
RMS Displacement         TolRMSD  ....  2.0000e-03 bohr
Strict Convergence                .... False

------------------------------------------------------------------------------
                        ORCA OPTIMIZATION COORDINATE SETUP
------------------------------------------------------------------------------

The optimization will be done in redundant internal coordinates (2022)
Making redundant internal coordinates   ...  (2022 redundants) done
Evaluating the initial hessian          ...  (Almloef) done
Evaluating the coordinates              ...  done
Calculating the B-matrix                .... done
Calculating the G-matrix                .... done
Diagonalizing the G-matrix              .... done
Small eigenvalue found = 6.555e-03
Small eigenvalue found = 1.249e-02
Small eigenvalue found = 2.256e-02
The first mode is                       ....  119
The number of degrees of freedom        ....  102

    -----------------------------------------------------------------
                    Redundant Internal Coordinates


    -----------------------------------------------------------------
         Definition                    Initial Value    Approx d2E/dq
    -----------------------------------------------------------------
      1. B(Cl  1,Fe  0)                  2.2800         0.539474   
      2. B(Cl  2,Fe  0)                  2.3405         0.431857   
      3. B(Cl  3,Fe  0)                  2.4366         0.303479   
      4. B(N   4,Fe  0)                  2.1198         0.387845   
      5. B(N   5,N   4)                  1.3840         0.512354   
      6. B(N   6,Fe  0)                  2.1734         0.318477   
      7. B(O   8,Fe  0)                  2.0107         0.578996   
      8. B(C   9,N   4)                  1.2681         0.875839   
      9. B(H  10,C   9)                  0.9302         0.647813   
     10. B(C  11,C   9)                  1.4770         0.453837   
     11. B(C  11,N   6)                  1.3605         0.623637   
     12. B(C  12,C  11)                  1.3772         0.654758   
     13. B(H  13,C  12)                  0.9297         0.648866   
     14. B(C  14,C  12)                  1.3913         0.621729   
     15. B(H  15,C  14)                  0.9302         0.647690   
     16. B(C  16,C  14)                  1.3866         0.632626   
     17. B(H  17,C  16)                  0.9304         0.647242   
     18. B(C  18,C  16)                  1.3825         0.642182   
     19. B(C  18,N   6)                  1.3490         0.650504   
     20. B(H  19,C  18)                  0.9295         0.649309   
     21. B(C  20,O   8)                  1.2821         0.831874   
     22. B(C  20,N   5)                  1.3254         0.709401   
     23. B(C  20,Fe  0)                  2.7987         0.035761   
     24. B(C  21,C  20)                  1.5016         0.414614   
     25. B(C  21,N   7)                  1.5089         0.361519   
     26. B(H  22,C  21)                  0.9698         0.559919   
     27. B(H  23,C  21)                  0.9697         0.560208   
     28. B(C  24,N   7)                  1.4843         0.395722   
     29. B(H  25,C  24)                  0.9596         0.581443   
     30. B(H  26,C  24)                  0.9599         0.580719   
     31. B(H  27,C  24)                  0.9600         0.580589   
     32. B(C  28,N   7)                  1.4943         0.381421   
     33. B(H  29,C  28)                  0.9595         0.581681   
     34. B(H  30,C  28)                  0.9610         0.578401   
     35. B(H  31,C  28)                  0.9587         0.583352   
     36. B(C  32,N   7)                  1.5041         0.367945   
     37. B(H  33,C  32)                  0.9591         0.582410   
     38. B(H  34,C  32)                  0.9603         0.580001   
     39. B(H  35,C  32)                  0.9588         0.583144   
     40. A(O   8,Fe  0,C  20)           24.6163         0.325221   
     41. A(Cl  1,Fe  0,N   6)          101.0923         0.486125   
     42. A(Cl  3,Fe  0,O   8)           87.9436         0.488150   
     43. A(Cl  2,Fe  0,Cl  3)          173.9240         0.480262   
     44. A(Cl  2,Fe  0,C  20)           93.3672         0.320553   
     45. A(N   4,Fe  0,C  20)           50.4456         0.304740   
     46. A(Cl  2,Fe  0,O   8)           90.6997         0.521328   
     47. A(N   4,Fe  0,O   8)           74.9501         0.491804   
     48. A(Cl  3,Fe  0,N   4)           82.1911         0.453543   
     49. A(N   4,Fe  0,N   6)           73.6034         0.440834   
     50. A(Cl  2,Fe  0,N   4)           91.7369         0.483845   
     51. A(Cl  1,Fe  0,C  20)          134.4182         0.332513   
     52. A(N   6,Fe  0,O   8)          148.4458         0.474233   
     53. A(N   6,Fe  0,C  20)          124.0490         0.295330   
     54. A(Cl  1,Fe  0,Cl  3)           91.5322         0.500471   
     55. A(Cl  3,Fe  0,C  20)           82.9545         0.302783   
     56. A(Cl  1,Fe  0,N   4)          171.6697         0.504238   
     57. A(Cl  2,Fe  0,N   6)           87.7136         0.466621   
     58. A(Cl  1,Fe  0,O   8)          110.4474         0.543657   
     59. A(Cl  3,Fe  0,N   6)           90.3436         0.437641   
     60. A(Cl  1,Fe  0,Cl  2)           94.4905         0.534674   
     61. A(Fe  0,N   4,N   5)          116.4278         0.424591   
     62. A(Fe  0,N   4,C   9)          120.5286         0.471098   
     63. A(N   5,N   4,C   9)          122.6574         0.437560   
     64. A(N   4,N   5,C  20)          107.4137         0.421323   
     65. A(Fe  0,N   6,C  11)          116.4140         0.427393   
     66. A(C  11,N   6,C  18)          118.3036         0.432575   
     67. A(Fe  0,N   6,C  18)          125.0132         0.430639   
     68. A(C  21,N   7,C  24)          112.0468         0.360373   
     69. A(C  24,N   7,C  32)          110.3492         0.361458   
     70. A(C  28,N   7,C  32)          108.7018         0.359197   
     71. A(C  21,N   7,C  32)          107.7588         0.355940   
     72. A(C  24,N   7,C  28)          108.2944         0.363685   
     73. A(C  21,N   7,C  28)          109.6405         0.358122   
     74. A(Fe  0,O   8,C  20)          114.5949         0.502522   
     75. A(H  10,C   9,C  11)          122.0416         0.369873   
     76. A(N   4,C   9,C  11)          115.8370         0.433830   
     77. A(N   4,C   9,H  10)          122.1213         0.412255   
     78. A(C   9,C  11,C  12)          123.5173         0.414535   
     79. A(N   6,C  11,C  12)          122.9661         0.435937   
     80. A(N   6,C  11,C   9)          113.3458         0.408317   
     81. A(H  13,C  12,C  14)          121.1300         0.390724   
     82. A(C  11,C  12,C  14)          117.7888         0.438573   
     83. A(C  11,C  12,H  13)          121.0809         0.394279   
     84. A(H  15,C  14,C  16)          119.9758         0.391788   
     85. A(C  12,C  14,C  16)          120.0620         0.435863   
     86. A(C  12,C  14,H  15)          119.9622         0.390600   
     87. A(H  17,C  16,C  18)          120.5987         0.392770   
     88. A(C  14,C  16,C  18)          118.8103         0.438413   
     89. A(C  14,C  16,H  17)          120.5910         0.391741   
     90. A(C  16,C  18,H  19)          119.0020         0.392989   
     91. A(N   6,C  18,H  19)          118.9417         0.391368   
     92. A(N   6,C  18,C  16)          122.0563         0.437731   
     93. A(O   8,C  20,C  21)          117.9774         0.422932   
     94. A(N   5,C  20,C  21)          115.7525         0.411109   
     95. A(Fe  0,C  20,C  21)          158.4310         0.279756   
     96. A(N   5,C  20,O   8)          126.2699         0.462992   
     97. A(Fe  0,C  20,O   8)           40.7888         0.310481   
     98. A(Fe  0,C  20,N   5)           85.6027         0.302639   
     99. A(H  22,C  21,H  23)          107.8809         0.335510   
    100. A(C  20,C  21,H  23)          109.0033         0.355282   
    101. A(N   7,C  21,H  23)          108.9955         0.345026   
    102. A(C  20,C  21,H  22)          109.0578         0.355251   
    103. A(N   7,C  21,H  22)          108.9962         0.344996   
    104. A(N   7,C  21,C  20)          112.7893         0.365529   
    105. A(H  25,C  24,H  26)          109.4873         0.339656   
    106. A(N   7,C  24,H  26)          109.5305         0.352454   
    107. A(N   7,C  24,H  25)          109.4730         0.352528   
    108. A(H  26,C  24,H  27)          109.4779         0.339572   
    109. A(H  25,C  24,H  27)          109.3700         0.339643   
    110. A(N   7,C  24,H  27)          109.4884         0.352440   
    111. A(H  30,C  28,H  31)          109.4459         0.339615   
    112. A(H  29,C  28,H  31)          109.4977         0.339936   
    113. A(N   7,C  28,H  31)          109.5557         0.350536   
    114. A(H  29,C  28,H  30)          109.4256         0.339452   
    115. A(N   7,C  28,H  30)          109.3802         0.350032   
    116. A(N   7,C  28,H  29)          109.5221         0.350366   
    117. A(H  34,C  32,H  35)          109.4108         0.339751   
    118. A(H  33,C  32,H  35)          109.5333         0.339987   
    119. A(N   7,C  32,H  35)          109.5177         0.348394   
    120. A(H  33,C  32,H  34)          109.4256         0.339680   
    121. A(N   7,C  32,H  34)          109.4244         0.348077   
    122. A(N   7,C  32,H  33)          109.5154         0.348320   
    123. D(N   5,N   4,Fe  0,Cl  2)     95.1302         0.002342   
    124. D(C   9,N   4,Fe  0,Cl  2)    -91.8165         0.002342   
    125. D(N   5,N   4,Fe  0,N   6)   -177.7660         0.002342   
    126. D(N   5,N   4,Fe  0,C  20)      2.1972         0.002342   
    127. D(N   5,N   4,Fe  0,Cl  3)    -85.0914         0.002342   
    128. D(C   9,N   4,Fe  0,Cl  1)     46.5792         0.002342   
    129. D(N   5,N   4,Fe  0,O   8)      4.8725         0.002342   
    130. D(N   5,N   4,Fe  0,Cl  1)   -126.4740         0.002342   
    131. D(C  20,N   5,N   4,Fe  0)     -3.7507         0.022024   
    132. D(C  20,N   5,N   4,C   9)   -176.6426         0.022024   
    133. D(C  11,N   6,Fe  0,N   4)      2.3208         0.002071   
    134. D(C  11,N   6,Fe  0,Cl  3)    -79.4348         0.002071   
    135. D(C  11,N   6,Fe  0,Cl  2)     94.8063         0.002071   
    136. D(C  11,N   6,Fe  0,O   8)      7.1939         0.002071   
    137. D(C  11,N   6,Fe  0,C  20)      2.2865         0.002071   
    138. D(C  11,N   6,Fe  0,Cl  1)   -171.0636         0.002071   
    139. D(C  18,N   6,Fe  0,Cl  2)    -79.1100         0.002071   
    140. D(C  18,N   6,Fe  0,Cl  1)     15.0201         0.002071   
    141. D(C  20,O   8,Fe  0,N   6)     -9.7973         0.003263   
    142. D(C  20,O   8,Fe  0,N   4)     -4.9563         0.003263   
    143. D(C  20,O   8,Fe  0,Cl  3)     77.5087         0.003263   
    144. D(C  20,O   8,Fe  0,Cl  1)    168.3778         0.003263   
    145. D(C  20,O   8,Fe  0,Cl  2)    -96.5668         0.003263   
    146. D(C  11,C   9,N   4,Fe  0)      6.1145         0.066951   
    147. D(H  10,C   9,N   4,N   5)     -1.3582         0.066951   
    148. D(H  10,C   9,N   4,Fe  0)   -173.9670         0.066951   
    149. D(C  11,C   9,N   4,N   5)    178.7233         0.066951   
    150. D(C  12,C  11,N   6,Fe  0)   -175.6205         0.031522   
    151. D(C   9,C  11,N   6,C  18)    174.1200         0.031522   
    152. D(C   9,C  11,N   6,Fe  0)     -0.2222         0.031522   
    153. D(C  12,C  11,N   6,C  18)     -1.2783         0.031522   
    154. D(C  12,C  11,C   9,H  10)     -8.2354         0.014036   
    155. D(C  12,C  11,C   9,N   4)    171.6832         0.014036   
    156. D(N   6,C  11,C   9,H  10)    176.3955         0.014036   
    157. D(N   6,C  11,C   9,N   4)     -3.6859         0.014036   
    158. D(C  14,C  12,C  11,C   9)   -174.4311         0.029881   
    159. D(C  14,C  12,C  11,N   6)      0.5001         0.029881   
    160. D(H  13,C  12,C  11,C   9)      5.7461         0.029881   
    161. D(H  13,C  12,C  11,N   6)   -179.3227         0.029881   
    162. D(C  16,C  14,C  12,H  13)   -179.7741         0.026757   
    163. D(C  16,C  14,C  12,C  11)      0.4032         0.026757   
    164. D(H  15,C  14,C  12,H  13)      0.2436         0.026757   
    165. D(H  15,C  14,C  12,C  11)   -179.5791         0.026757   
    166. D(C  18,C  16,C  14,H  15)    179.4827         0.027764   
    167. D(C  18,C  16,C  14,C  12)     -0.4996         0.027764   
    168. D(H  17,C  16,C  14,H  15)     -0.6124         0.027764   
    169. D(H  17,C  16,C  14,C  12)    179.4054         0.027764   
    170. D(H  19,C  18,C  16,C  14)    179.6402         0.028666   
    171. D(N   6,C  18,C  16,H  17)    179.7917         0.028666   
    172. D(N   6,C  18,C  16,C  14)     -0.3033         0.028666   
    173. D(H  19,C  18,N   6,C  11)   -178.7761         0.034538   
    174. D(H  19,C  18,N   6,Fe  0)     -4.9650         0.034538   
    175. D(C  16,C  18,N   6,C  11)      1.1675         0.034538   
    176. D(H  19,C  18,C  16,H  17)     -0.2647         0.028666   
    177. D(C  16,C  18,N   6,Fe  0)    174.9787         0.034538   
    178. D(O   8,C  20,Fe  0,Cl  1)    -15.3243         0.001508   
    179. D(N   5,C  20,Fe  0,O   8)   -175.8484         0.001508   
    180. D(N   5,C  20,Fe  0,N   6)     -2.0180         0.001508   
    181. D(N   5,C  20,Fe  0,N   4)     -2.0606         0.001508   
    182. D(N   5,C  20,Fe  0,Cl  3)     83.6105         0.001508   
    183. D(N   5,C  20,Fe  0,Cl  2)    -91.5325         0.001508   
    184. D(O   8,C  20,Fe  0,Cl  2)     84.3159         0.001508   
    185. D(N   5,C  20,Fe  0,Cl  1)    168.8273         0.001508   
    186. D(C  21,C  20,O   8,Fe  0)   -175.0701         0.059580   
    187. D(N   5,C  20,O   8,Fe  0)      5.1366         0.059580   
    188. D(C  21,C  20,N   5,N   4)    179.3903         0.041758   
    189. D(O   8,C  20,N   5,N   4)     -0.8124         0.041758   
    190. D(Fe  0,C  20,N   5,N   4)      2.5505         0.041758   
    191. D(O   8,C  20,Fe  0,Cl  3)   -100.5412         0.001508   
    192. D(H  22,C  21,C  20,O   8)    -39.0492         0.013609   
    193. D(H  22,C  21,C  20,N   5)    140.7658         0.013609   
    194. D(N   7,C  21,C  20,O   8)     82.1947         0.013609   
    195. D(N   7,C  21,C  20,N   5)    -97.9903         0.013609   
    196. D(N   7,C  21,C  20,Fe  0)     73.4105         0.013609   
    197. D(H  22,C  21,N   7,C  32)    -65.6135         0.012010   
    198. D(H  22,C  21,N   7,C  28)    176.2364         0.012010   
    199. D(H  22,C  21,N   7,C  24)     55.9639         0.012010   
    200. D(H  22,C  21,C  20,Fe  0)    -47.8334         0.013609   
    201. D(C  20,C  21,N   7,C  32)    173.1076         0.012010   
    202. D(C  20,C  21,N   7,C  28)     54.9575         0.012010   
    203. D(C  20,C  21,N   7,C  24)    -65.3150         0.012010   
    204. D(H  26,C  24,N   7,C  32)    179.7867         0.014316   
    205. D(H  26,C  24,N   7,C  28)    -61.3442         0.014316   
    206. D(H  26,C  24,N   7,C  21)     59.7087         0.014316   
    207. D(H  25,C  24,N   7,C  32)    -60.1561         0.014316   
    208. D(H  25,C  24,N   7,C  28)     58.7130         0.014316   
    209. D(H  25,C  24,N   7,C  21)    179.7659         0.014316   
    210. D(H  30,C  28,N   7,C  32)   -179.5220         0.013320   
    211. D(H  30,C  28,N   7,C  24)     60.5715         0.013320   
    212. D(H  30,C  28,N   7,C  21)    -61.9596         0.013320   
    213. D(H  29,C  28,N   7,C  32)    -59.6025         0.013320   
    214. D(H  29,C  28,N   7,C  24)   -179.5090         0.013320   
    215. D(H  29,C  28,N   7,C  21)     57.9599         0.013320   
    216. D(H  34,C  32,N   7,C  28)    -58.8843         0.012424   
    217. D(H  34,C  32,N   7,C  24)     59.7363         0.012424   
    218. D(H  34,C  32,N   7,C  21)   -177.6368         0.012424   
    219. D(H  33,C  32,N   7,C  28)     61.0582         0.012424   
    220. D(H  33,C  32,N   7,C  24)    179.6788         0.012424   
    221. D(H  33,C  32,N   7,C  21)    -57.6943         0.012424   
    -----------------------------------------------------------------

Number of atoms                         .... 36
Number of degrees of freedom            .... 221


         *************************************************************
         *                GEOMETRY OPTIMIZATION CYCLE   1            *
         *************************************************************
---------------------------------
CARTESIAN COORDINATES (ANGSTROEM)
---------------------------------
  Fe     0.319700    2.288900    9.922400
  Cl    -1.855600    2.096100    9.267300
  Cl     1.073400    3.038000    7.837000
  Cl    -0.216600    1.496400   12.163200
  N      2.298300    2.200900   10.678000
  N      2.739200    3.308800   11.380600
  N      1.089900    0.325300    9.398100
  N      1.436400    5.552600   13.424200
  O      0.654200    4.103000   10.722500
  C      2.971600    1.129400   10.597200
  H      3.808600    1.040200   10.993000
  C      2.344900    0.031400    9.833500
  C      2.997800   -1.136000    9.505300
  H      3.852300   -1.314300    9.825300
  C      2.334600   -2.040800    8.682300
  H      2.745100   -2.841500    8.446400
  C      1.062300   -1.750200    8.213800
  H      0.615400   -2.346200    7.656400
  C      0.470600   -0.558100    8.588200
  H     -0.380200   -0.358300    8.271600
  C      1.778300    4.220200   11.327800
  C      2.058600    5.506400   12.050300
  H      1.717200    6.246100   11.524100
  H      3.018100    5.618700   12.134400
  C     -0.046700    5.542700   13.364800
  H     -0.402700    5.569200   14.255500
  H     -0.344900    4.743600   12.924400
  H     -0.352800    6.310500   12.876600
  C      1.882000    4.367200   14.217500
  H      2.839800    4.360600   14.273600
  H      1.581600    3.563100   13.785400
  H      1.510100    4.413400   15.099900
  C      1.924200    6.800900   14.107000
  H      2.882600    6.792600   14.143300
  H      1.571100    6.835600   14.999300
  H      1.628600    7.570300   13.617200

----------------------------
CARTESIAN COORDINATES (A.U.)
----------------------------
  NO LB      ZA    FRAG     MASS         X           Y           Z
   0 Fe   26.0000    0    55.850    0.604145    4.325394   18.750619
   1 Cl   17.0000    0    35.453   -3.506576    3.961055   17.512659
   2 Cl   17.0000    0    35.453    2.028432    5.740988   14.809784
   3 Cl   17.0000    0    35.453   -0.409315    2.827786   22.985117
   4 N     7.0000    0    14.007    4.343158    4.159098   20.178496
   5 N     7.0000    0    14.007    5.176338    6.252726   21.506217
   6 N     7.0000    0    14.007    2.059613    0.614728   17.759835
   7 N     7.0000    0    14.007    2.714403   10.492893   25.368062
   8 O     8.0000    0    15.999    1.236259    7.753546   20.262588
   9 C     6.0000    0    12.011    5.615510    2.134257   20.025806
  10 H     1.0000    0     1.008    7.197211    1.965693   20.773759
  11 C     6.0000    0    12.011    4.431219    0.059337   18.582622
  12 C     6.0000    0    12.011    5.665021   -2.146729   17.962414
  13 H     1.0000    0     1.008    7.279792   -2.483667   18.567126
  14 C     6.0000    0    12.011    4.411755   -3.856553   16.407169
  15 H     1.0000    0     1.008    5.187487   -5.369657   15.961383
  16 C     6.0000    0    12.011    2.007456   -3.307399   15.521833
  17 H     1.0000    0     1.008    1.162937   -4.433675   14.468499
  18 C     6.0000    0    12.011    0.889305   -1.054656   16.229346
  19 H     1.0000    0     1.008   -0.718474   -0.677089   15.631059
  20 C     6.0000    0    12.011    3.360500    7.975022   21.406440
  21 C     6.0000    0    12.011    3.890190   10.405588   22.771767
  22 H     1.0000    0     1.008    3.245038   11.803418   21.777393
  23 H     1.0000    0     1.008    5.703382   10.617804   22.930693
  24 C     6.0000    0    12.011   -0.088250   10.474185   25.255812
  25 H     1.0000    0     1.008   -0.760993   10.524263   26.938991
  26 H     1.0000    0     1.008   -0.651767    8.964105   24.423576
  27 H     1.0000    0     1.008   -0.666695   11.925117   24.333248
  28 C     6.0000    0    12.011    3.556465    8.252812   26.867181
  29 H     1.0000    0     1.008    5.366444    8.240340   26.973195
  30 H     1.0000    0     1.008    2.988791    6.733283   26.050631
  31 H     1.0000    0     1.008    2.853675    8.340117   28.534676
  32 C     6.0000    0    12.011    3.636211   12.851838   26.658367
  33 H     1.0000    0     1.008    5.447325   12.836154   26.726964
  34 H     1.0000    0     1.008    2.968949   12.917412   28.344569
  35 H     1.0000    0     1.008    3.077608   14.305794   25.732779

--------------------------------
INTERNAL COORDINATES (ANGSTROEM)
--------------------------------
 Fe     0   0   0     0.000000000000     0.00000000     0.00000000
 Cl     1   0   0     2.279968846278     0.00000000     0.00000000
 Cl     1   2   0     2.340535763452    94.49051659     0.00000000
 Cl     1   2   3     2.436566966041    91.53218980   180.80370257
 N      1   2   3     2.119795584485   171.66970388   221.73762959
 N      5   1   2     1.384009385806   116.42782124   233.52595599
 N      1   2   3     2.173435872070   101.09232040   271.45442862
 N      6   5   1     3.302760548390   137.07870847    34.63606333
 O      1   2   3     2.010723519035   110.44737994    92.42746815
 C      5   1   9     1.268059060139   120.52856662   177.92577780
 H     10   5   1     0.930152288607   122.12127645   186.03301006
 C      7   1   2     1.360505556769   116.41404536   188.93637463
 C     12   7   1     1.377249581594   122.96608324   184.37949091
 H     13  12   7     0.929710245184   121.08092569   180.67727840
 C     13  12   7     1.391339742838   117.78879403     0.50006551
 H     15  13  12     0.930204036758   119.96220676   180.42093705
 C     15  13  12     1.386610219204   120.06198760     0.40320136
 H     17  15  13     0.930392589179   120.59096967   179.40538359
 C      7   1   2     1.349024113943   125.01321371    15.02006895
 H     19   7   1     0.929524738778   118.94170418   355.03503610
 C      9   1   2     1.282078289341   114.59492000   168.37782718
 C     21   9   1     1.501627377214   117.97737385   184.92992142
 H     22  21   9     0.969843538928   109.05781008   320.95076117
 H     22  21   9     0.969703227797   109.00332318   203.39953179
 C      8   6   5     1.484322060740   111.39776238   344.54620165
 H     25   8   6     0.959575291470   109.47295912   134.73447867
 H     25   8   6     0.959914688918   109.53053553    14.67728750
 H     25   8   6     0.959975671567   109.48844105   254.62212477
 C      8   6   5     1.494341798251    70.84874112    87.30265060
 H     29   8   6     0.959464230704   109.52213178    73.51569858
 H     29   8   6     0.961003319453   109.38017075   313.59617774
 H     29   8   6     0.958683373174   109.55566987   193.63128946
 C      8   6   5     1.504133494740   135.78902373   184.76017672
 H     33   8   6     0.959123109929   109.51542425   339.61150822
 H     33   8   6     0.960251524341   109.42441619   219.66896927
 H     33   8   6     0.958780350237   109.51765226    99.74325405

---------------------------
INTERNAL COORDINATES (A.U.)
---------------------------
 Fe     0   0   0     0.000000000000     0.00000000     0.00000000
 Cl     1   0   0     4.308516713339     0.00000000     0.00000000
 Cl     1   2   0     4.422971599573    94.49051659     0.00000000
 Cl     1   2   3     4.604444272776    91.53218980   180.80370257
 N      1   2   3     4.005833114571   171.66970388   221.73762959
 N      5   1   2     2.615398705951   116.42782124   233.52595599
 N      1   2   3     4.107198567852   101.09232040   271.45442862
 N      6   5   1     6.241312922376   137.07870847    34.63606333
 O      1   2   3     3.799716782010   110.44737994    92.42746815
 C      5   1   9     2.396284345300   120.52856662   177.92577780
 H     10   5   1     1.757733088306   122.12127645   186.03301006
 C      7   1   2     2.570982905972   116.41404536   188.93637463
 C     12   7   1     2.602624527270   122.96608324   184.37949091
 H     13  12   7     1.756897747298   121.08092569   180.67727840
 C     13  12   7     2.629251073204   117.78879403     0.50006551
 H     15  13  12     1.757830878140   119.96220676   180.42093705
 C     15  13  12     2.620313568791   120.06198760     0.40320136
 H     17  15  13     1.758187190579   120.59096967   179.40538359
 C      7   1   2     2.549286123408   125.01321371    15.02006895
 H     19   7   1     1.756547190995   118.94170418   355.03503610
 C      9   1   2     2.422776849101   114.59492000   168.37782718
 C     21   9   1     2.837664498134   117.97737385   184.92992142
 H     22  21   9     1.832738681327   109.05781008   320.95076117
 H     22  21   9     1.832473531716   109.00332318   203.39953179
 C      8   6   5     2.804962189337   111.39776238   344.54620165
 H     25   8   6     1.813334505756   109.47295912   134.73447867
 H     25   8   6     1.813975873983   109.53053553    14.67728750
 H     25   8   6     1.814091114488   109.48844105   254.62212477
 C      8   6   5     2.823896749166    70.84874112    87.30265060
 H     29   8   6     1.813124631324   109.52213178    73.51569858
 H     29   8   6     1.816033087556   109.38017075   313.59617774
 H     29   8   6     1.811649024442   109.55566987   193.63128946
 C      8   6   5     2.842400373917   135.78902373   184.76017672
 H     33   8   6     1.812480006481   109.51542425   339.61150822
 H     33   8   6     1.814612400686   109.42441619   219.66896927
 H     33   8   6     1.811832284532   109.51765226    99.74325405

---------------------
BASIS SET INFORMATION
---------------------
There are 6 groups of distinct atoms

 Group   1 Type Fe  : 17s11p7d1f contracted to 6s4p4d1f pattern {842111/6311/4111/1}
 Group   2 Type Cl  : 14s9p3d1f contracted to 5s5p2d1f pattern {73211/51111/21/1}
 Group   3 Type N   : 11s6p2d1f contracted to 5s3p2d1f pattern {62111/411/11/1}
 Group   4 Type O   : 11s6p2d1f contracted to 5s3p2d1f pattern {62111/411/11/1}
 Group   5 Type C   : 11s6p2d1f contracted to 5s3p2d1f pattern {62111/411/11/1}
 Group   6 Type H   : 5s1p contracted to 3s1p pattern {311/1}

Atom   0Fe   basis set group =>   1
Atom   1Cl   basis set group =>   2
Atom   2Cl   basis set group =>   2
Atom   3Cl   basis set group =>   2
Atom   4N    basis set group =>   3
Atom   5N    basis set group =>   3
Atom   6N    basis set group =>   3
Atom   7N    basis set group =>   3
Atom   8O    basis set group =>   4
Atom   9C    basis set group =>   5
Atom  10H    basis set group =>   6
Atom  11C    basis set group =>   5
Atom  12C    basis set group =>   5
Atom  13H    basis set group =>   6
Atom  14C    basis set group =>   5
Atom  15H    basis set group =>   6
Atom  16C    basis set group =>   5
Atom  17H    basis set group =>   6
Atom  18C    basis set group =>   5
Atom  19H    basis set group =>   6
Atom  20C    basis set group =>   5
Atom  21C    basis set group =>   5
Atom  22H    basis set group =>   6
Atom  23H    basis set group =>   6
Atom  24C    basis set group =>   5
Atom  25H    basis set group =>   6
Atom  26H    basis set group =>   6
Atom  27H    basis set group =>   6
Atom  28C    basis set group =>   5
Atom  29H    basis set group =>   6
Atom  30H    basis set group =>   6
Atom  31H    basis set group =>   6
Atom  32C    basis set group =>   5
Atom  33H    basis set group =>   6
Atom  34H    basis set group =>   6
Atom  35H    basis set group =>   6
---------------------------------
AUXILIARY/J BASIS SET INFORMATION
---------------------------------
There are 6 groups of distinct atoms

 Group   1 Type Fe  : 19s5p5d3f3g contracted to 8s5p5d2f3g pattern {121111111/11111/11111/21/111}
 Group   2 Type Cl  : 14s5p5d2f1g contracted to 8s4p3d1f1g pattern {71111111/2111/311/2/1}
 Group   3 Type N   : 12s5p4d2f1g contracted to 6s4p3d1f1g pattern {711111/2111/211/2/1}
 Group   4 Type O   : 12s5p4d2f1g contracted to 6s4p3d1f1g pattern {711111/2111/211/2/1}
 Group   5 Type C   : 12s5p4d2f1g contracted to 6s4p3d1f1g pattern {711111/2111/211/2/1}
 Group   6 Type H   : 5s2p1d contracted to 3s1p1d pattern {311/2/1}

Atom   0Fe   basis set group =>   1
Atom   1Cl   basis set group =>   2
Atom   2Cl   basis set group =>   2
Atom   3Cl   basis set group =>   2
Atom   4N    basis set group =>   3
Atom   5N    basis set group =>   3
Atom   6N    basis set group =>   3
Atom   7N    basis set group =>   3
Atom   8O    basis set group =>   4
Atom   9C    basis set group =>   5
Atom  10H    basis set group =>   6
Atom  11C    basis set group =>   5
Atom  12C    basis set group =>   5
Atom  13H    basis set group =>   6
Atom  14C    basis set group =>   5
Atom  15H    basis set group =>   6
Atom  16C    basis set group =>   5
Atom  17H    basis set group =>   6
Atom  18C    basis set group =>   5
Atom  19H    basis set group =>   6
Atom  20C    basis set group =>   5
Atom  21C    basis set group =>   5
Atom  22H    basis set group =>   6
Atom  23H    basis set group =>   6
Atom  24C    basis set group =>   5
Atom  25H    basis set group =>   6
Atom  26H    basis set group =>   6
Atom  27H    basis set group =>   6
Atom  28C    basis set group =>   5
Atom  29H    basis set group =>   6
Atom  30H    basis set group =>   6
Atom  31H    basis set group =>   6
Atom  32C    basis set group =>   5
Atom  33H    basis set group =>   6
Atom  34H    basis set group =>   6
Atom  35H    basis set group =>   6


           ************************************************************
           *        Program running with 16 parallel MPI-processes    *
           *              working on a common directory               *
           ************************************************************
------------------------------------------------------------------------------
                             ORCA STARTUP CALCULATIONS
                           -- RI-GTO INTEGRALS CHOSEN --
------------------------------------------------------------------------------
------------------------------------------------------------------------------
                   ___                                                        
                  /   \      - P O W E R E D   B Y -                         
                 /     \                                                     
                 |  |  |   _    _      __       _____    __    __             
                 |  |  |  | |  | |    /  \     |  _  \  |  |  /  |          
                  \  \/   | |  | |   /    \    | | | |  |  | /  /          
                 / \  \   | |__| |  /  /\  \   | |_| |  |  |/  /          
                |  |  |   |  __  | /  /__\  \  |    /   |      \           
                |  |  |   | |  | | |   __   |  |    \   |  |\   \          
                \     /   | |  | | |  |  |  |  | |\  \  |  | \   \       
                 \___/    |_|  |_| |__|  |__|  |_| \__\ |__|  \__/        
                                                                              
                      - O R C A' S   B I G   F R I E N D -                    
                                      &                                       
                       - I N T E G R A L  F E E D E R -                       
                                                                              
 v1 FN, 2020, v2 2021, v3 2022-2024                                           
------------------------------------------------------------------------------


----------------------
SHARK INTEGRAL PACKAGE
----------------------

Number of atoms                             ...     36
Number of basis functions                   ...    748
Number of shells                            ...    294
Maximum angular momentum                    ...      3
Integral batch strategy                     ... SHARK/LIBINT Hybrid
RI-J (if used) integral strategy            ... SPLIT-RIJ (Revised 2003 algorithm where possible)
Printlevel                                  ...      1
Contraction scheme used                     ... SEGMENTED contraction
Prescreening option                         ... SCHWARTZ
   Thresh                                   ... 2.500e-11
   Tcut                                     ... 2.500e-12
   Tpresel                                  ... 2.500e-12 
Coulomb Range Separation                    ... NOT USED
Exchange Range Separation                   ... NOT USED
Multipole approximations                    ... NOT USED
Finite Nucleus Model                        ... NOT USED
CABS basis                                  ... NOT available
Auxiliary Coulomb fitting basis             ... AVAILABLE
   # of basis functions in Aux-J            ...   1202
   # of shells in Aux-J                     ...    394
   Maximum angular momentum in Aux-J        ...      4
Auxiliary J/K fitting basis                 ... NOT available
Auxiliary Correlation fitting basis         ... NOT available
Auxiliary 'external' fitting basis          ... NOT available

Checking pre-screening integrals            ... done (  0.0 sec) Dimension = 294
Check shell pair data                       ... done (  0.0 sec)
Shell pair information
Shell pair cut-off parameter TPreSel        ...   2.5e-12
Total number of shell pairs                 ...     43365
Shell pairs after pre-screening             ...     29801
Total number of primitive shell pairs       ...    142878
Primitive shell pairs kept                  ...     63849
          la=0 lb=0:   7360 shell pairs
          la=1 lb=0:   8634 shell pairs
          la=1 lb=1:   2589 shell pairs
          la=2 lb=0:   4275 shell pairs
          la=2 lb=1:   2547 shell pairs
          la=2 lb=2:    677 shell pairs
          la=3 lb=0:   1877 shell pairs
          la=3 lb=1:   1130 shell pairs
          la=3 lb=2:    576 shell pairs
          la=3 lb=3:    136 shell pairs

Calculating one electron integrals          ... done (  0.0 sec)
done (  0.2 sec)
Calculating Nuclear repulsion               ... done (  0.0 sec) ENN=   2664.674949384484 Eh

Diagonalization of the overlap matrix:
Smallest eigenvalue                        ... 2.460e-05
Time for diagonalization                   ...    0.080 sec
Threshold for overlap eigenvalues          ... 1.000e-07
Number of eigenvalues below threshold      ... 0
Time for construction of square roots      ...    0.062 sec
Total time needed                          ...    0.169 sec

-------------------
DFT GRID GENERATION
-------------------

General Integration Accuracy     IntAcc      ... 4.959
Radial Grid Type                 RadialGrid  ... OptM3 with GC (2021)
Angular Grid (max. ang.)         AngularGrid ... 6 (Lebedev-590)
Angular grid pruning method      GridPruning ... 4 (adaptive)
Weight generation scheme         WeightScheme... mBecke (2022)
Basis function cutoff            BFCut       ... 1.0000e-11
Integration weight cutoff        WCut        ... 1.0000e-14
Partially contracted basis set               ... off
Rotationally invariant grid construction     ... off
Angular grids for H and He will be reduced by one unit
Core-polarized basis detected: some atoms will have their core
                               angular grid increased.

Total number of grid points                  ...   437448
Total number of batches                      ...     6851
Average number of points per batch           ...       63
Average number of grid points per atom       ...    12151

--------------------
COSX GRID GENERATION
--------------------

GRIDX 1
-------
General Integration Accuracy     IntAcc      ... 4.020
Radial Grid Type                 RadialGrid  ... OptM3 with GC (2021)
Angular Grid (max. ang.)         AngularGrid ... 2 (Lebedev-110)
Angular grid pruning method      GridPruning ... 4 (adaptive)
Weight generation scheme         WeightScheme... mBecke (2022)
Basis function cutoff            BFCut       ... 1.0000e-11
Integration weight cutoff        WCut        ... 1.0000e-14
Partially contracted basis set               ... on
Rotationally invariant grid construction     ... off
Angular grids for H and He will be reduced by one unit
Core-polarized basis detected: some atoms will have their core
                               angular grid increased.

Total number of grid points                  ...    51245
Total number of batches                      ...      418
Average number of points per batch           ...      122
Average number of grid points per atom       ...     1423
UseSFitting                                  ... on

GRIDX 2
-------
General Integration Accuracy     IntAcc      ... 4.338
Radial Grid Type                 RadialGrid  ... OptM3 with GC (2021)
Angular Grid (max. ang.)         AngularGrid ... 3 (Lebedev-194)
Angular grid pruning method      GridPruning ... 4 (adaptive)
Weight generation scheme         WeightScheme... mBecke (2022)
Basis function cutoff            BFCut       ... 1.0000e-11
Integration weight cutoff        WCut        ... 1.0000e-14
Partially contracted basis set               ... on
Rotationally invariant grid construction     ... off
Angular grids for H and He will be reduced by one unit
Core-polarized basis detected: some atoms will have their core
                               angular grid increased.

Total number of grid points                  ...   106941
Total number of batches                      ...      855
Average number of points per batch           ...      125
Average number of grid points per atom       ...     2971
UseSFitting                                  ... on

GRIDX 3
-------
General Integration Accuracy     IntAcc      ... 4.871
Radial Grid Type                 RadialGrid  ... OptM3 with GC (2021)
Angular Grid (max. ang.)         AngularGrid ... 4 (Lebedev-302)
Angular grid pruning method      GridPruning ... 4 (adaptive)
Weight generation scheme         WeightScheme... mBecke (2022)
Basis function cutoff            BFCut       ... 1.0000e-11
Integration weight cutoff        WCut        ... 1.0000e-14
Partially contracted basis set               ... on
Rotationally invariant grid construction     ... off
Angular grids for H and He will be reduced by one unit
Core-polarized basis detected: some atoms will have their core
                               angular grid increased.

Total number of grid points                  ...   200116
Total number of batches                      ...     1579
Average number of points per batch           ...      126
Average number of grid points per atom       ...     5559
UseSFitting                                  ... on
Initializing property integral containers    ... done (  0.0 sec)

SHARK setup successfully completed in   7.2 seconds

Maximum memory used throughout the entire STARTUP-calculation: 130.1 MB


           ************************************************************
           *        Program running with 16 parallel MPI-processes    *
           *              working on a common directory               *
           ************************************************************
-------------------------------------------------------------------------------
                                 ORCA GUESS
                   Start orbitals & Density for SCF / CASSCF
-------------------------------------------------------------------------------

------------
SCF SETTINGS
------------
Hamiltonian:
 Density Functional     Method          .... DFT(GTOs)
 Exchange Functional    Exchange        .... PBE
   PBE kappa parameter   XKappa         ....  0.804000
   PBE mue parameter    XMuePBE         ....  0.219520
 Correlation Functional Correlation     .... PBE
   PBE beta parameter  CBetaPBE         ....  0.066725
 LDA part of GGA corr.  LDAOpt          .... PW91-LDA
 Gradients option       PostSCFGGA      .... off
 Hybrid DFT is turned on
   Fraction HF Exchange ScalHFX         ....  0.250000
   Scaling of DF-GGA-X  ScalDFX         ....  0.750000
   Scaling of DF-GGA-C  ScalDFC         ....  1.000000
   Scaling of DF-LDA-C  ScalLDAC        ....  1.000000
   Perturbative correction              ....  0.000000
   NL short-range parameter             ....  6.900000
 RI-approximation to the Coulomb term is turned on
   Number of AuxJ basis functions       .... 1202
   RIJ-COSX (HFX calculated with COS-X)).... on


General Settings:
 Integral files         IntName         .... OQODEE-S6
 Hartree-Fock type      HFTyp           .... UHF
 Total Charge           Charge          ....    0
 Multiplicity           Mult            ....    6
 Number of Electrons    NEL             ....  195
 Basis Dimension        Dim             ....  748
 Nuclear Repulsion      ENuc            ....   2664.6749493845 Eh

Convergence Acceleration:
 AO-DIIS                CNVDIIS         .... on
   Start iteration      DIISMaxIt       ....    12
   Startup error        DIISStart       ....  0.200000
   # of expansion vecs  DIISMaxEq       ....     5
   Bias factor          DIISBfac        ....   1.050
   Max. coefficient     DIISMaxC        ....  10.000
 MO-DIIS                CNVKDIIS        .... off
 Trust-Rad. Augm. Hess. CNVTRAH         .... auto
   Auto Start mean grad. ratio tolernc. ....  1.125000
   Auto Start start iteration           ....    50
   Auto Start num. interpolation iter.  ....    10
   Max. Number of Micro iterations      ....    24
   Max. Number of Macro iterations      .... Maxiter - #DIIS iter
   Number of Davidson start vectors     ....     2
   Converg. threshold    (grad. norm)   ....   1.000e-05
   Grad. Scal. Fac. for Micro threshold ....   0.100
   Minimum threshold for Micro iter.    ....   1.000e-02
   NR start threshold (gradient norm)   ....   1.000e-04
   Initial trust radius                 ....   0.400
   Minimum AH scaling param. (alpha)    ....   1.000
   Maximum AH scaling param. (alpha)    .... 1000.000
   Quad. conv. algorithm                .... NR
   White noise on init. David. guess    .... on
   Maximum white noise                  ....   0.010
   Pseudo random numbers                .... off
   Inactive MOs                         .... canonical
   Orbital update algorithm             .... Taylor
   Preconditioner                       .... Diag
   Full preconditioner red. dimension   ....   250
 SOSCF                  CNVSOSCF        .... on
   Start iteration      SOSCFMaxIt      ....   150
   Startup grad/error   SOSCFStart      ....  0.003300
   Hessian update       SOSCFHessUp     .... L-BFGS
 Level Shifting         CNVShift        .... on
   Level shift para.    LevelShift      ....    0.2500
   Turn off err/grad.   ShiftErr        ....    0.0010
 Zerner damping         CNVZerner       .... off
 Static damping         CNVDamp         .... on
   Fraction old density DampFac         ....    0.7000
   Max. Damping (<1)    DampMax         ....    0.9800
   Min. Damping (>=0)   DampMin         ....    0.0000
   Turn off err/grad.   DampErr         ....    0.1000

SCF Procedure:
 Maximum # iterations   MaxIter         ....   125
 SCF integral mode      SCFMode         .... Direct
   Integral package                     .... SHARK and LIBINT hybrid scheme
 Reset frequency        DirectResetFreq ....    20
 Integral Threshold     Thresh          ....  2.500e-11 Eh
 Primitive CutOff       TCut            ....  2.500e-12 Eh

Convergence Tolerance:
 Convergence Check Mode ConvCheckMode   .... Total+1el-Energy
 Convergence forced     ConvForced      .... 0
 Energy Change          TolE            ....  1.000e-08 Eh
 1-El. energy change                    ....  1.000e-05 Eh
 Orbital Gradient       TolG            ....  1.000e-05
 Orbital Rotation angle TolX            ....  1.000e-05
 DIIS Error             TolErr          ....  5.000e-07

------------------------------
INITIAL GUESS: MODEL POTENTIAL
------------------------------
Loading Hartree-Fock densities                     ... done
Calculating cut-offs                               ... done
Initializing the effective Hamiltonian             ... done
Setting up the integral package (SHARK)            ... done
done (   0.3 sec)
Making the grid                                    ... done (   0.2 sec)
Mapping shells                                     ... done
Starting the XC term evaluation                    ... done (   0.1 sec)
  promolecular density results
     # of electrons  =    194.977545612
     EX              =   -232.038793110
     EC              =     -7.179184091
     EX+EC           =   -239.217977201
Transforming the Hamiltonian                       ... done (   0.1 sec)
done (   0.1 sec)
Back transforming the eigenvectors                 ... done (   0.1 sec)
done
                      ------------------
                      INITIAL GUESS DONE (   1.1 sec)
                      ------------------
             **** ENERGY FILE WAS UPDATED (OQODEE-S6.en.tmp) ****
Finished Guess after   1.7 sec
Maximum memory used throughout the entire GUESS-calculation: 57.8 MB


           ************************************************************
           *        Program running with 16 parallel MPI-processes    *
           *              working on a common directory               *
           ************************************************************

-------------------------------------------------------------------------------------------
                                      ORCA LEAN-SCF
                              memory conserving SCF solver
-------------------------------------------------------------------------------------------

----------------------------------------D-I-I-S--------------------------------------------
Iteration    Energy (Eh)           Delta-E    RMSDP     MaxDP     DIISErr   Damp  Time(sec)
-------------------------------------------------------------------------------------------
               ***  Starting incremental Fock matrix formation  ***
    1    -3364.9536295834468547     0.00e+00  9.50e-04  1.90e-01  3.23e-01  0.700  13.3
Warning: op=0 Small HOMO/LUMO gap (  -0.506) - skipping pre-diagonalization
         LevelShift set to 0.606 Eh
         Will do a full diagonalization
    2    -3365.1015239378775732    -1.48e-01  7.62e-04  7.58e-02  1.71e-01  0.700   8.6
                               ***Turning on AO-DIIS***
    3    -3365.3968565801424120    -2.95e-01  4.60e-04  4.48e-02  5.63e-02  0.700   7.8
    4    -3365.5575513958019656    -1.61e-01  8.82e-04  7.89e-02  4.75e-02  0.000   7.2
    5    -3365.9144944828140069    -3.57e-01  3.26e-04  4.07e-02  1.15e-01  0.000   7.3
    6    -3365.9588025969815135    -4.43e-02  9.19e-05  1.14e-02  7.88e-02  0.700   6.4
    7    -3365.9714462576430378    -1.26e-02  3.86e-04  4.22e-02  5.96e-02  0.000   6.7
    8    -3366.0005344521114239    -2.91e-02  1.05e-04  1.08e-02  5.59e-03  0.000   7.4
    9    -3366.0040196978434324    -3.49e-03  6.58e-05  6.89e-03  7.33e-03  0.000   6.5
   10    -3366.0061456106677724    -2.13e-03  5.05e-05  4.70e-03  4.18e-03  0.000   6.6
                              *** Initializing SOSCF ***
---------------------------------------S-O-S-C-F--------------------------------------
Iteration    Energy (Eh)           Delta-E    RMSDP     MaxDP     MaxGrad    Time(sec)
--------------------------------------------------------------------------------------
   11    -3366.0075546516836766    -1.41e-03  3.92e-05  3.18e-03  1.81e-03     7.6
               *** Restarting incremental Fock matrix formation ***
   12    -3366.0084730347007280    -9.18e-04  1.03e-04  4.93e-03  8.48e-03    12.8
   13    -3366.0101045210703887    -1.63e-03  6.99e-05  4.72e-03  2.44e-03     9.7
   14    -3366.0100433780016829     6.11e-05  2.43e-05  3.06e-03  2.61e-03     9.7
   15    -3366.0102940395381665    -2.51e-04  3.30e-05  3.19e-03  1.66e-03     8.3
   16    -3366.0102150856246226     7.90e-05  1.68e-05  2.07e-03  2.82e-03     9.0
   17    -3366.0103266563637590    -1.12e-04  1.78e-05  1.94e-03  2.74e-04     8.1
   18    -3366.0103166473772944     1.00e-05  1.04e-05  1.15e-03  3.90e-04     8.7
   19    -3366.0103350368772226    -1.84e-05  3.49e-06  2.85e-04  9.71e-05     7.8
   20    -3366.0103345068373528     5.30e-07  2.15e-06  1.62e-04  1.76e-04     7.2
   21    -3366.0103357783091269    -1.27e-06  9.48e-07  7.21e-05  3.29e-05     6.4
   22    -3366.0103357976367988    -1.93e-08  6.42e-07  3.51e-05  4.14e-05     6.0
   23    -3366.0103360087105102    -2.11e-07  8.14e-07  4.94e-05  1.04e-05     5.9
   24    -3366.0103360712209906    -6.25e-08  5.02e-07  3.62e-05  1.07e-05     5.7
   25    -3366.0103360190441890     5.22e-08  2.99e-07  2.33e-05  1.31e-05     5.2
   26    -3366.0103360531256840    -3.41e-08  3.65e-07  3.60e-05  2.69e-06     4.9
   27    -3366.0103360847988370    -3.17e-08  2.53e-07  2.86e-05  1.92e-06     4.7
                  *** Gradient check signals convergence ***

               *****************************************************
               *                     SUCCESS                       *
               *           SCF CONVERGED AFTER  27 CYCLES          *
               *****************************************************

 done (   16.257 sec)
Old exchange energy                            :    -58.833372476 Eh
New exchange energy                            :    -58.833376869 Eh
Exchange energy change after final integration :     -0.000004393 Eh
Total energy after final integration           :  -3366.010340478 Eh
             **** ENERGY FILE WAS UPDATED (OQODEE-S6.en.tmp) ****

----------------
TOTAL SCF ENERGY
----------------

Total Energy       :      -3366.01034047780240 Eh          -91593.79790 eV

Components:
Nuclear Repulsion  :       2664.67494938448363 Eh           72509.49168 eV
Electronic Energy  :      -6030.68528546928246 Eh         -164103.28947 eV
One Electron Energy:      -9944.15125533939499 Eh         -270594.11240 eV
Two Electron Energy:       3913.46596987011253 Eh          106490.82293 eV

Virial components:
Potential Energy   :      -6729.05618399671948 Eh         -183106.92774 eV
Kinetic Energy     :       3363.04584351891663 Eh           91513.12984 eV
Virial Ratio       :          2.00088149168843

DFT components:
N(Alpha)           :      100.000005610883 electrons
N(Beta)            :       95.000005820559 electrons
N(Total)           :      195.000011431442 electrons
E(X)               :     -175.884513367993 Eh       
E(C)               :       -7.138507386358 Eh       
E(XC)              :     -183.023020754352 Eh       

---------------
SCF CONVERGENCE
---------------

  Last Energy change         ...    3.1673e-08  Tolerance :   1.0000e-08
  Last MAX-Density change    ...    2.8561e-05  Tolerance :   1.0000e-07
  Last RMS-Density change    ...    2.5328e-07  Tolerance :   5.0000e-09
  Last DIIS Error            ...    1.8110e-03  Tolerance :   5.0000e-07
  Last Orbital Gradient      ...    1.9216e-06  Tolerance :   1.0000e-05
  Last Orbital Rotation      ...    9.9667e-06  Tolerance :   1.0000e-05


----------------------
UHF SPIN CONTAMINATION
----------------------

Warning: in a DFT calculation there is little theoretical justification to 
         calculate <S**2> as in Hartree-Fock theory. We will do it anyways
         but you should keep in mind that the values have only limited relevance

Expectation value of <S**2>     :     8.761536
Ideal value S*(S+1) for S=2.5   :     8.750000
Deviation                       :     0.011536

----------------
ORBITAL ENERGIES
----------------
                 SPIN UP ORBITALS
  NO   OCC          E(Eh)            E(eV) 
   0   1.0000    -256.440485     -6978.1004 
   1   1.0000    -101.591446     -2764.4438 
   2   1.0000    -101.587512     -2764.3367 
   3   1.0000    -101.587412     -2764.3340 
   4   1.0000     -30.262888      -823.4951 
   5   1.0000     -26.082416      -709.7386 
   6   1.0000     -26.079681      -709.6642 
   7   1.0000     -26.079228      -709.6519 
   8   1.0000     -19.201901      -522.5103 
   9   1.0000     -14.574400      -396.5896 
  10   1.0000     -14.439140      -392.9090 
  11   1.0000     -14.420598      -392.4044 
  12   1.0000     -14.402099      -391.9010 
  13   1.0000     -10.329393      -281.0771 
  14   1.0000     -10.299421      -280.2615 
  15   1.0000     -10.298272      -280.2302 
  16   1.0000     -10.288718      -279.9703 
  17   1.0000     -10.275125      -279.6004 
  18   1.0000     -10.273865      -279.5661 
  19   1.0000     -10.261584      -279.2319 
  20   1.0000     -10.258107      -279.1373 
  21   1.0000     -10.241748      -278.6921 
  22   1.0000     -10.235611      -278.5251 
  23   1.0000     -10.227419      -278.3022 
  24   1.0000      -9.417773      -256.2706 
  25   1.0000      -9.413636      -256.1581 
  26   1.0000      -9.413566      -256.1562 
  27   1.0000      -7.148597      -194.5232 
  28   1.0000      -7.146521      -194.4667 
  29   1.0000      -7.145370      -194.4354 
  30   1.0000      -7.145005      -194.4255 
  31   1.0000      -7.144856      -194.4214 
  32   1.0000      -7.141676      -194.3349 
  33   1.0000      -7.141636      -194.3338 
  34   1.0000      -7.141410      -194.3276 
  35   1.0000      -7.141123      -194.3198 
  36   1.0000      -3.687142      -100.3322 
  37   1.0000      -2.452529       -66.7367 
  38   1.0000      -2.445768       -66.5527 
  39   1.0000      -2.444833       -66.5273 
  40   1.0000      -1.112662       -30.2771 
  41   1.0000      -1.083010       -29.4702 
  42   1.0000      -1.022360       -27.8198 
  43   1.0000      -0.990904       -26.9639 
  44   1.0000      -0.890320       -24.2268 
  45   1.0000      -0.866879       -23.5890 
  46   1.0000      -0.856547       -23.3078 
  47   1.0000      -0.852354       -23.1937 
  48   1.0000      -0.851769       -23.1778 
  49   1.0000      -0.813310       -22.1313 
  50   1.0000      -0.746729       -20.3195 
  51   1.0000      -0.733000       -19.9459 
  52   1.0000      -0.721463       -19.6320 
  53   1.0000      -0.719626       -19.5820 
  54   1.0000      -0.705583       -19.1999 
  55   1.0000      -0.693980       -18.8842 
  56   1.0000      -0.652294       -17.7498 
  57   1.0000      -0.624319       -16.9886 
  58   1.0000      -0.623682       -16.9712 
  59   1.0000      -0.616986       -16.7890 
  60   1.0000      -0.597758       -16.2658 
  61   1.0000      -0.580683       -15.8012 
  62   1.0000      -0.557595       -15.1729 
  63   1.0000      -0.544905       -14.8276 
  64   1.0000      -0.537398       -14.6233 
  65   1.0000      -0.527771       -14.3614 
  66   1.0000      -0.517191       -14.0735 
  67   1.0000      -0.503340       -13.6966 
  68   1.0000      -0.499314       -13.5870 
  69   1.0000      -0.493611       -13.4318 
  70   1.0000      -0.489907       -13.3310 
  71   1.0000      -0.483013       -13.1435 
  72   1.0000      -0.479622       -13.0512 
  73   1.0000      -0.470235       -12.7957 
  74   1.0000      -0.467251       -12.7146 
  75   1.0000      -0.461291       -12.5524 
  76   1.0000      -0.456101       -12.4111 
  77   1.0000      -0.452277       -12.3071 
  78   1.0000      -0.442240       -12.0340 
  79   1.0000      -0.434253       -11.8166 
  80   1.0000      -0.430547       -11.7158 
  81   1.0000      -0.420441       -11.4408 
  82   1.0000      -0.416619       -11.3368 
  83   1.0000      -0.406050       -11.0492 
  84   1.0000      -0.378564       -10.3013 
  85   1.0000      -0.349487        -9.5100 
  86   1.0000      -0.322712        -8.7814 
  87   1.0000      -0.315335        -8.5807 
  88   1.0000      -0.304430        -8.2840 
  89   1.0000      -0.290930        -7.9166 
  90   1.0000      -0.283014        -7.7012 
  91   1.0000      -0.256691        -6.9849 
  92   1.0000      -0.251866        -6.8536 
  93   1.0000      -0.248171        -6.7531 
  94   1.0000      -0.243322        -6.6211 
  95   1.0000      -0.239621        -6.5204 
  96   1.0000      -0.235069        -6.3965 
  97   1.0000      -0.234519        -6.3816 
  98   1.0000      -0.220219        -5.9925 
  99   1.0000      -0.211782        -5.7629 
 100   0.0000      -0.080425        -2.1885 
 101   0.0000      -0.041080        -1.1178 
 102   0.0000      -0.016382        -0.4458 
 103   0.0000       0.002116         0.0576 
 104   0.0000       0.025263         0.6874 
 105   0.0000       0.036139         0.9834 
 106   0.0000       0.045329         1.2335 
 107   0.0000       0.046912         1.2765 
 108   0.0000       0.056123         1.5272 
 109   0.0000       0.062101         1.6898 
 110   0.0000       0.071980         1.9587 

                 SPIN DOWN ORBITALS
  NO   OCC          E(Eh)            E(eV) 
   0   1.0000    -256.438985     -6978.0595 
   1   1.0000    -101.589628     -2764.3943 
   2   1.0000    -101.586146     -2764.2996 
   3   1.0000    -101.585584     -2764.2843 
   4   1.0000     -30.166276      -820.8661 
   5   1.0000     -25.999862      -707.4922 
   6   1.0000     -25.999154      -707.4729 
   7   1.0000     -25.998591      -707.4576 
   8   1.0000     -19.198547      -522.4190 
   9   1.0000     -14.574420      -396.5901 
  10   1.0000     -14.436390      -392.8341 
  11   1.0000     -14.417968      -392.3329 
  12   1.0000     -14.401807      -391.8931 
  13   1.0000     -10.329468      -281.0791 
  14   1.0000     -10.299418      -280.2614 
  15   1.0000     -10.298123      -280.2262 
  16   1.0000     -10.288727      -279.9705 
  17   1.0000     -10.275124      -279.6003 
  18   1.0000     -10.273858      -279.5659 
  19   1.0000     -10.261676      -279.2344 
  20   1.0000     -10.258186      -279.1394 
  21   1.0000     -10.241819      -278.6941 
  22   1.0000     -10.235536      -278.5231 
  23   1.0000     -10.227290      -278.2987 
  24   1.0000      -9.416126      -256.2258 
  25   1.0000      -9.412316      -256.1221 
  26   1.0000      -9.411976      -256.1129 
  27   1.0000      -7.145606      -194.4418 
  28   1.0000      -7.143892      -194.3952 
  29   1.0000      -7.143301      -194.3791 
  30   1.0000      -7.141685      -194.3351 
  31   1.0000      -7.141330      -194.3255 
  32   1.0000      -7.140248      -194.2960 
  33   1.0000      -7.139929      -194.2874 
  34   1.0000      -7.139558      -194.2773 
  35   1.0000      -7.139476      -194.2750 
  36   1.0000      -3.456929       -94.0678 
  37   1.0000      -2.201380       -59.9026 
  38   1.0000      -2.199855       -59.8611 
  39   1.0000      -2.199639       -59.8552 
  40   1.0000      -1.112298       -30.2672 
  41   1.0000      -1.078841       -29.3568 
  42   1.0000      -1.018275       -27.7087 
  43   1.0000      -0.987999       -26.8848 
  44   1.0000      -0.888694       -24.1826 
  45   1.0000      -0.866858       -23.5884 
  46   1.0000      -0.855743       -23.2859 
  47   1.0000      -0.852063       -23.1858 
  48   1.0000      -0.851454       -23.1692 
  49   1.0000      -0.812597       -22.1119 
  50   1.0000      -0.746357       -20.3094 
  51   1.0000      -0.722112       -19.6497 
  52   1.0000      -0.710615       -19.3368 
  53   1.0000      -0.709228       -19.2991 
  54   1.0000      -0.703943       -19.1553 
  55   1.0000      -0.693186       -18.8625 
  56   1.0000      -0.651148       -17.7186 
  57   1.0000      -0.623815       -16.9749 
  58   1.0000      -0.622116       -16.9286 
  59   1.0000      -0.616448       -16.7744 
  60   1.0000      -0.595155       -16.1950 
  61   1.0000      -0.578385       -15.7386 
  62   1.0000      -0.554128       -15.0786 
  63   1.0000      -0.543000       -14.7758 
  64   1.0000      -0.536431       -14.5970 
  65   1.0000      -0.522199       -14.2097 
  66   1.0000      -0.512672       -13.9505 
  67   1.0000      -0.499997       -13.6056 
  68   1.0000      -0.498326       -13.5601 
  69   1.0000      -0.492733       -13.4080 
  70   1.0000      -0.486543       -13.2395 
  71   1.0000      -0.482012       -13.1162 
  72   1.0000      -0.474976       -12.9248 
  73   1.0000      -0.466405       -12.6915 
  74   1.0000      -0.458334       -12.4719 
  75   1.0000      -0.448681       -12.2092 
  76   1.0000      -0.434161       -11.8141 
  77   1.0000      -0.426481       -11.6051 
  78   1.0000      -0.405799       -11.0423 
  79   1.0000      -0.380507       -10.3541 
  80   1.0000      -0.346574        -9.4308 
  81   1.0000      -0.325282        -8.8514 
  82   1.0000      -0.321879        -8.7588 
  83   1.0000      -0.306030        -8.3275 
  84   1.0000      -0.305309        -8.3079 
  85   1.0000      -0.288405        -7.8479 
  86   1.0000      -0.281073        -7.6484 
  87   1.0000      -0.272534        -7.4160 
  88   1.0000      -0.264422        -7.1953 
  89   1.0000      -0.249131        -6.7792 
  90   1.0000      -0.245609        -6.6834 
  91   1.0000      -0.233671        -6.3585 
  92   1.0000      -0.228572        -6.2197 
  93   1.0000      -0.226905        -6.1744 
  94   1.0000      -0.211206        -5.7472 
  95   0.0000      -0.086095        -2.3428 
  96   0.0000      -0.071138        -1.9358 
  97   0.0000      -0.063788        -1.7358 
  98   0.0000      -0.056221        -1.5299 
  99   0.0000      -0.035022        -0.9530 
 100   0.0000      -0.033044        -0.8992 
 101   0.0000      -0.027207        -0.7403 
 102   0.0000      -0.014665        -0.3991 
 103   0.0000       0.003384         0.0921 
 104   0.0000       0.026307         0.7159 
 105   0.0000       0.037558         1.0220 
*Only the first 10 virtual orbitals were printed.

                    ********************************
                    * MULLIKEN POPULATION ANALYSIS *
                    ********************************

--------------------------------------------
MULLIKEN ATOMIC CHARGES AND SPIN POPULATIONS
--------------------------------------------
   0 Fe:    0.533896    4.196072
   1 Cl:   -0.444830    0.219612
   2 Cl:   -0.469833    0.214228
   3 Cl:   -0.526849    0.154224
   4 N :    0.144037    0.059081
   5 N :   -0.295161    0.013020
   6 N :   -0.010830    0.051266
   7 N :    0.109558   -0.000780
   8 O :   -0.386641    0.076288
   9 C :   -0.198055   -0.004293
  10 H :    0.103399    0.006187
  11 C :    0.341567    0.004024
  12 C :   -0.215159    0.004934
  13 H :    0.131478    0.000871
  14 C :   -0.077715   -0.005618
  15 H :    0.137357    0.000230
  16 C :   -0.089862    0.006527
  17 H :    0.138168    0.000707
  18 C :   -0.061505   -0.004790
  19 H :    0.136336    0.002600
  20 C :    0.258300   -0.002041
  21 C :   -0.190505    0.004426
  22 H :    0.168161   -0.000073
  23 H :    0.156405    0.001833
  24 C :   -0.310107   -0.000095
  25 H :    0.148862    0.000155
  26 H :    0.221549    0.000951
  27 H :    0.150823   -0.000013
  28 C :   -0.305288   -0.000012
  29 H :    0.150804    0.000328
  30 H :    0.196909   -0.000079
  31 H :    0.150560    0.000089
  32 C :   -0.291337    0.000048
  33 H :    0.166227    0.000012
  34 H :    0.162021    0.000131
  35 H :    0.167260   -0.000049
Sum of atomic charges         :    0.0000000
Sum of atomic spin populations:    5.0000000

-----------------------------------------------------
MULLIKEN REDUCED ORBITAL CHARGES AND SPIN POPULATIONS
-----------------------------------------------------
CHARGE
  0 Fes       :     6.628347  s :     6.628347
      pz      :     4.271748  p :    12.778281
      px      :     4.259432
      py      :     4.247101
      dz2     :     1.255706  d :     6.058346
      dxz     :     1.218109
      dyz     :     1.167724
      dx2y2   :     1.247407
      dxy     :     1.169400
      f0      :     0.000191  f :     0.001130
      f+1     :     0.000131
      f-1     :     0.000140
      f+2     :     0.000230
      f-2     :     0.000083
      f+3     :     0.000233
      f-3     :     0.000121

  1 Cls       :     5.941603  s :     5.941603
      pz      :     3.892391  p :    11.484350
      px      :     3.712754
      py      :     3.879205
      dz2     :     0.002703  d :     0.017668
      dxz     :     0.004928
      dyz     :     0.000660
      dx2y2   :     0.005715
      dxy     :     0.003663
      f0      :     0.000154  f :     0.001209
      f+1     :     0.000220
      f-1     :     0.000021
      f+2     :     0.000241
      f-2     :     0.000076
      f+3     :     0.000299
      f-3     :     0.000198

  2 Cls       :     5.946451  s :     5.946451
      pz      :     3.726426  p :    11.508633
      px      :     3.902315
      py      :     3.879891
      dz2     :     0.004963  d :     0.013861
      dxz     :     0.003326
      dyz     :     0.003562
      dx2y2   :     0.001234
      dxy     :     0.000776
      f0      :     0.000206  f :     0.000889
      f+1     :     0.000226
      f-1     :     0.000232
      f+2     :     0.000086
      f-2     :     0.000103
      f+3     :     0.000016
[...]
 52:    946.70   0.002861   14.46  0.000943  ( 0.023918 -0.008695 -0.017185)
 53:   1002.26   0.000087    0.44  0.000027  (-0.002537 -0.000937  0.004454)
 54:   1009.22   0.001712    8.65  0.000530  (-0.019420  0.006038 -0.010766)
 55:   1016.42   0.004949   25.01  0.001519  (-0.010845 -0.035573 -0.011680)
 56:   1018.02   0.000001    0.00  0.000000  ( 0.000071  0.000214 -0.000353)
 57:   1035.99   0.000458    2.31  0.000138  (-0.007192  0.009287 -0.000058)
 58:   1040.08   0.000243    1.23  0.000073  ( 0.005875 -0.006150  0.000840)
 59:   1080.35   0.001315    6.65  0.000380  ( 0.009224 -0.016914 -0.002965)
 60:   1081.01   0.000003    0.02  0.000001  ( 0.000081 -0.000033 -0.000974)
 61:   1125.69   0.000950    4.80  0.000263  (-0.002786 -0.014418 -0.006899)
 62:   1133.06   0.002009   10.15  0.000553  (-0.013137  0.019103  0.003981)
 63:   1141.68   0.000257    1.30  0.000070  ( 0.007832  0.002218  0.001979)
 64:   1162.57   0.027349  138.21  0.007341  (-0.016829  0.078352  0.030316)
 65:   1178.20   0.002129   10.76  0.000564  (-0.019050  0.014164  0.000709)
 66:   1214.26   0.002026   10.24  0.000521  ( 0.014086 -0.017877 -0.001625)
 67:   1252.42   0.002837   14.34  0.000707  (-0.010374  0.024102  0.004292)
 68:   1261.33   0.000958    4.84  0.000237  ( 0.005315 -0.012873 -0.006554)
 69:   1300.76   0.000288    1.45  0.000069  (-0.005370 -0.002325  0.005901)
 70:   1331.64   0.001135    5.74  0.000266  ( 0.015744 -0.004265  0.000054)
 71:   1335.16   0.000990    5.00  0.000231  ( 0.000367 -0.010927 -0.010578)
 72:   1337.90   0.002840   14.35  0.000662  (-0.012788 -0.018115 -0.013065)
 73:   1353.86   0.015520   78.43  0.003577  (-0.000688  0.053352  0.027026)
 74:   1391.20   0.002680   13.54  0.000601  ( 0.021552  0.006014  0.010026)
 75:   1434.84   0.013980   70.65  0.003040  ( 0.012929  0.044097  0.030475)
 76:   1445.55   0.008991   45.44  0.001941  ( 0.002375  0.033293  0.028754)
 77:   1449.73   0.001684    8.51  0.000363  ( 0.013702 -0.012852  0.003102)
 78:   1458.99   0.005841   29.52  0.001249  (-0.007587 -0.030963 -0.015264)
 79:   1461.25   0.000249    1.26  0.000053  ( 0.002724  0.004407  0.005133)
 80:   1472.06   0.002528   12.77  0.000536  (-0.011110  0.019142  0.006779)
 81:   1479.63   0.000836    4.22  0.000176  ( 0.007637  0.010820  0.000924)
 82:   1484.83   0.001963    9.92  0.000413  ( 0.018572  0.004751  0.006714)
 83:   1496.34   0.008995   45.46  0.001876  ( 0.001973 -0.029962 -0.031213)
 84:   1500.73   0.002163   10.93  0.000450  (-0.002537  0.020972 -0.001889)
 85:   1504.85   0.003550   17.94  0.000736  ( 0.016858  0.012611  0.017115)
 86:   1514.96   0.008783   44.38  0.001809  (-0.026273  0.013406  0.030646)
 87:   1519.70   0.011154   56.37  0.002290  ( 0.004862  0.047571  0.001944)
 88:   1609.48   0.055834  282.16  0.010826  ( 0.060315 -0.084629 -0.005075)
 89:   1641.34   0.029390  148.52  0.005588  (-0.060014  0.043585 -0.009299)
 90:   1669.34   0.004748   23.99  0.000888  ( 0.001563  0.026700  0.013122)
 91:   1706.37   0.006773   34.23  0.001239  (-0.030164 -0.005883 -0.017149)
 92:   3041.10   0.015535   78.51  0.001594  (-0.016187 -0.018998 -0.031163)
 93:   3068.60   0.012598   63.66  0.001281  (-0.005325  0.027067  0.022807)
 94:   3081.10   0.002701   13.65  0.000274  ( 0.002012  0.012598  0.010524)
 95:   3101.36   0.003274   16.54  0.000329  (-0.003187 -0.016487 -0.006888)
 96:   3145.38   0.002538   12.82  0.000252  (-0.007262 -0.011693 -0.007894)
 97:   3155.16   0.002717   13.73  0.000269  ( 0.014968  0.002852  0.006045)
 98:   3168.26   0.004851   24.51  0.000478  ( 0.005082  0.018773  0.009977)
 99:   3171.30   0.000277    1.40  0.000027  ( 0.000675 -0.005048 -0.001169)
100:   3177.97   0.000202    1.02  0.000020  ( 0.002587  0.002719  0.002392)
101:   3178.60   0.000614    3.10  0.000060  (-0.001474  0.007586 -0.000729)
102:   3181.63   0.000626    3.16  0.000061  ( 0.007609 -0.001877  0.000088)
103:   3185.14   0.003229   16.32  0.000316  ( 0.003396 -0.007612 -0.015714)
104:   3198.46   0.001750    8.85  0.000171  ( 0.001854 -0.012257 -0.004136)
105:   3204.05   0.000267    1.35  0.000026  (-0.002900  0.004190  0.000217)
106:   3215.76   0.000972    4.91  0.000094  ( 0.008946 -0.003568  0.001238)
107:   3229.68   0.000972    4.91  0.000094  ( 0.000126  0.009127  0.003253)

* The epsilon (eps) is given for a Dirac delta lineshape.
** The dipole moment derivative (T) already includes vibrational overlap.

The first frequency considered to be a vibration is 6
The total number of vibrations considered is 102


--------------------------
THERMOCHEMISTRY AT 298.15K
--------------------------

Temperature         ...   298.15 K
Pressure            ...     1.00 atm
Total Mass          ...   382.48 AMU
Quasi RRHO          ...     True
Cut-Off Frequency   ...     1.00 cm^-1

Throughout the following assumptions are being made:
  (1) The electronic state is orbitally nondegenerate
      but the spin degeneracy is treated
  (2) There are no thermally accessible electronically excited states
  (3) Hindered rotations indicated by low frequency modes are not
      treated as such but are treated as vibrations and this may
      cause some error
  (4) All equations used are the standard statistical mechanics
      equations for an ideal gas
  (5) All vibrations are strictly harmonic

freq.      39.77  E(vib)   ...       0.54 
freq.      46.82  E(vib)   ...       0.53 
freq.      59.90  E(vib)   ...       0.51 
freq.      65.67  E(vib)   ...       0.50 
freq.      77.11  E(vib)   ...       0.49 
freq.      78.10  E(vib)   ...       0.49 
freq.     103.66  E(vib)   ...       0.46 
freq.     114.92  E(vib)   ...       0.44 
freq.     129.39  E(vib)   ...       0.43 
freq.     142.66  E(vib)   ...       0.41 
freq.     155.93  E(vib)   ...       0.40 
freq.     163.55  E(vib)   ...       0.39 
freq.     194.10  E(vib)   ...       0.36 
freq.     206.69  E(vib)   ...       0.35 
freq.     219.97  E(vib)   ...       0.33 
freq.     229.01  E(vib)   ...       0.32 
freq.     241.64  E(vib)   ...       0.31 
freq.     256.95  E(vib)   ...       0.30 
freq.     270.45  E(vib)   ...       0.29 
freq.     297.94  E(vib)   ...       0.27 
freq.     302.92  E(vib)   ...       0.26 
freq.     306.86  E(vib)   ...       0.26 
freq.     310.86  E(vib)   ...       0.26 
freq.     324.73  E(vib)   ...       0.24 
freq.     360.54  E(vib)   ...       0.22 
freq.     372.35  E(vib)   ...       0.21 
freq.     392.12  E(vib)   ...       0.20 
freq.     431.66  E(vib)   ...       0.18 
freq.     437.56  E(vib)   ...       0.17 
freq.     441.25  E(vib)   ...       0.17 
freq.     441.98  E(vib)   ...       0.17 
freq.     479.21  E(vib)   ...       0.15 
freq.     499.29  E(vib)   ...       0.14 
freq.     539.73  E(vib)   ...       0.12 
freq.     548.08  E(vib)   ...       0.12 
freq.     651.53  E(vib)   ...       0.08 
freq.     666.94  E(vib)   ...       0.08 
freq.     695.73  E(vib)   ...       0.07 
freq.     769.73  E(vib)   ...       0.05 
freq.     778.37  E(vib)   ...       0.05 
freq.     794.88  E(vib)   ...       0.05 
freq.     820.29  E(vib)   ...       0.05 
freq.     892.89  E(vib)   ...       0.03 
freq.     902.12  E(vib)   ...       0.03 
freq.     933.25  E(vib)   ...       0.03 
freq.     944.12  E(vib)   ...       0.03 
freq.     946.70  E(vib)   ...       0.03 
freq.    1002.26  E(vib)   ...       0.02 
freq.    1009.22  E(vib)   ...       0.02 
freq.    1016.42  E(vib)   ...       0.02 
freq.    1018.02  E(vib)   ...       0.02 
freq.    1035.99  E(vib)   ...       0.02 
freq.    1040.08  E(vib)   ...       0.02 
freq.    1080.35  E(vib)   ...       0.02 
freq.    1081.01  E(vib)   ...       0.02 
freq.    1125.69  E(vib)   ...       0.01 
freq.    1133.06  E(vib)   ...       0.01 
freq.    1141.68  E(vib)   ...       0.01 
freq.    1162.57  E(vib)   ...       0.01 
freq.    1178.20  E(vib)   ...       0.01 
freq.    1214.26  E(vib)   ...       0.01 
freq.    1252.42  E(vib)   ...       0.01 
freq.    1261.33  E(vib)   ...       0.01 
freq.    1300.76  E(vib)   ...       0.01 
freq.    1331.64  E(vib)   ...       0.01 
freq.    1335.16  E(vib)   ...       0.01 
freq.    1337.90  E(vib)   ...       0.01 
freq.    1353.86  E(vib)   ...       0.01 
freq.    1391.20  E(vib)   ...       0.00 
freq.    1434.84  E(vib)   ...       0.00 
freq.    1445.55  E(vib)   ...       0.00 
freq.    1449.73  E(vib)   ...       0.00 
freq.    1458.99  E(vib)   ...       0.00 
freq.    1461.25  E(vib)   ...       0.00 
freq.    1472.06  E(vib)   ...       0.00 
freq.    1479.63  E(vib)   ...       0.00 
freq.    1484.83  E(vib)   ...       0.00 
freq.    1496.34  E(vib)   ...       0.00 
freq.    1500.73  E(vib)   ...       0.00 
freq.    1504.85  E(vib)   ...       0.00 
freq.    1514.96  E(vib)   ...       0.00 
freq.    1519.70  E(vib)   ...       0.00 
freq.    1609.48  E(vib)   ...       0.00 
freq.    1641.34  E(vib)   ...       0.00 
freq.    1669.34  E(vib)   ...       0.00 
freq.    1706.37  E(vib)   ...       0.00 
freq.    3041.10  E(vib)   ...       0.00 
freq.    3068.60  E(vib)   ...       0.00 
freq.    3081.10  E(vib)   ...       0.00 
freq.    3101.36  E(vib)   ...       0.00 
freq.    3145.38  E(vib)   ...       0.00 
freq.    3155.16  E(vib)   ...       0.00 
freq.    3168.26  E(vib)   ...       0.00 
freq.    3171.30  E(vib)   ...       0.00 
freq.    3177.97  E(vib)   ...       0.00 
freq.    3178.60  E(vib)   ...       0.00 
freq.    3181.63  E(vib)   ...       0.00 
freq.    3185.14  E(vib)   ...       0.00 
freq.    3198.46  E(vib)   ...       0.00 
freq.    3204.05  E(vib)   ...       0.00 
freq.    3215.76  E(vib)   ...       0.00 
freq.    3229.68  E(vib)   ...       0.00 

------------
INNER ENERGY
------------

The inner energy is: U= E(el) + E(ZPE) + E(vib) + E(rot) + E(trans)
    E(el)   - is the total energy from the electronic structure calculation
              = E(kin-el) + E(nuc-el) + E(el-el) + E(nuc-nuc)
    E(ZPE)  - the the zero temperature vibrational energy from the frequency calculation
    E(vib)  - the the finite temperature correction to E(ZPE) due to population
              of excited vibrational states
    E(rot)  - is the rotational thermal energy
    E(trans)- is the translational thermal energy

Summary of contributions to the inner energy U:
Electronic energy                ...  -3366.27329984 Eh
Zero point energy                ...      0.27619703 Eh     173.32 kcal/mol
Thermal vibrational correction   ...      0.01898576 Eh      11.91 kcal/mol
Thermal rotational correction    ...      0.00141627 Eh       0.89 kcal/mol
Thermal translational correction ...      0.00141627 Eh       0.89 kcal/mol
-----------------------------------------------------------------------
Total thermal energy                  -3365.97528451 Eh


Summary of corrections to the electronic energy:
(perhaps to be used in another calculation)
Total thermal correction                  0.02181830 Eh      13.69 kcal/mol
Non-thermal (ZPE) correction              0.27619703 Eh     173.32 kcal/mol
-----------------------------------------------------------------------
Total correction                          0.29801532 Eh     187.01 kcal/mol


--------
ENTHALPY
--------

The enthalpy is H = U + kB*T
                kB is Boltzmann's constant
Total thermal energy              ...  -3365.97528451 Eh 
Thermal Enthalpy correction       ...      0.00094421 Eh       0.59 kcal/mol
-----------------------------------------------------------------------
Total Enthalpy                    ...  -3365.97434030 Eh


Note: Only C1 symmetry has been detected, increase convergence thresholds 
      if your molecule has a higher symmetry. Symmetry factor of 1.0 is   
      used for the rotational entropy correction. 
 

Note: Rotational entropy computed according to Herzberg 
Infrared and Raman Spectra, Chapter V,1, Van Nostrand Reinhold, 1945 
Point Group:  C1, Symmetry Number:   1  
Rotational constants in cm-1:     0.013851     0.005658     0.005193 

Vibrational entropy computed according to the QRRHO of S. Grimme
Chem.Eur.J. 2012 18 9955 using a reference frequency of 100.0 cm-1


-------
ENTROPY
-------

The entropy contributions are T*S = T*(S(el)+S(vib)+S(rot)+S(trans))
     S(el)   - electronic entropy
     S(vib)  - vibrational entropy
     S(rot)  - rotational entropy
     S(trans)- translational entropy
The entropies will be listed as multiplied by the temperature to get
units of energy

Electronic entropy                ...      0.00169175 Eh      1.06 kcal/mol
Vibrational entropy               ...      0.03364149 Eh     21.11 kcal/mol
Rotational entropy                ...      0.01645746 Eh     10.33 kcal/mol
Translational entropy             ...      0.02077120 Eh     13.03 kcal/mol
-----------------------------------------------------------------------
Final entropy term                ...      0.07256189 Eh     45.53 kcal/mol

In case the symmetry of your molecule has not been determined correctly
or in case you have a reason to use a different symmetry number we print 
out the resulting rotational entropy values for sn=1,12:

 non-linear molecules -----------------------------------
|  sn= 1 | S(rot)=       0.01645746 Eh     10.33 kcal/mol|
|  sn= 2 | S(rot)=       0.01580300 Eh      9.92 kcal/mol|
|  sn= 3 | S(rot)=       0.01542017 Eh      9.68 kcal/mol|
|  sn= 4 | S(rot)=       0.01514855 Eh      9.51 kcal/mol|
|  sn= 5 | S(rot)=       0.01493786 Eh      9.37 kcal/mol|
|  sn= 6 | S(rot)=       0.01476572 Eh      9.27 kcal/mol|
|  sn= 7 | S(rot)=       0.01462017 Eh      9.17 kcal/mol|
|  sn= 8 | S(rot)=       0.01449409 Eh      9.10 kcal/mol|
|  sn= 9 | S(rot)=       0.01438288 Eh      9.03 kcal/mol|
|  sn=10 | S(rot)=       0.01428340 Eh      8.96 kcal/mol|
|  sn=11 | S(rot)=       0.01419341 Eh      8.91 kcal/mol|
|  sn=12 | S(rot)=       0.01411126 Eh      8.85 kcal/mol|
 linear molecules ---------------------------------------
|  Dinfh | S(rot)=       0.01029268 Eh      6.46 kcal/mol|
|  Cinfv | S(rot)=       0.01094714 Eh      6.87 kcal/mol|
 --------------------------------------------------------


-------------------
GIBBS FREE ENERGY
-------------------

The Gibbs free energy is G = H - T*S

Total enthalpy                    ...  -3365.97434030 Eh 
Total entropy correction          ...     -0.07256189 Eh    -45.53 kcal/mol
-----------------------------------------------------------------------
Final Gibbs free energy         ...  -3366.04690219 Eh

For completeness - the Gibbs free energy minus the electronic energy
G-E(el)                           ...      0.22639764 Eh    142.07 kcal/mol


Maximum memory used throughout the entire PROP-calculation: 768.8 MB

--------------------------------
SUGGESTED CITATIONS FOR THIS RUN
--------------------------------

Below you find a list of papers that are relevant to this ORCA run
We neither can nor want to force you to cite these papers, but we appreciate if you do
You receive ORCA, which is the product of decades of hard work by many enthusiastic individuals, for free
The only thing we kindly ask in return is that you cite our papers,
We deeply appreciate it, if you show your appreciation for ORCA by not just citing the generic ORCA reference.

Please note that relegating all ORCA citations to the supporting information does *not* help us.
SI sections are not indexed - citations you put there will not count into any citation statistics
But we need these citations in order to attract the funding resources that allow us to do what we are doing

Therefore, if you are a happy ORCA user, please consider citing a few of the papers listed below in the main body of your paper

In addition to the list printed below, the program has created the file OQODEE-S6.bibtex that contains the list in bibtex format
You can import this file easily into all common literature databanks and citation aid programs


List of essential papers. We consider these as the minimum necessary citations

  1. Neese,F.
     Software update: the ORCA program system, version 5.0
     WIRES Comput. Molec. Sci., 2022 12(1)e1606
     doi.org/10.1002/wcms.1606

List of papers to cite with high priority. The work reported in these papers was absolutely
necessary for this run to complete.
Our perspective: the developers of density functionals and basis sets usually get cited in chemistry papers
Good! But without the algorithms to do something with them, the functionals or basis sets would not do anything.
Hence, in our opinion, the algorithm design and method developments papers are equally worthy of getting cited

  1. Neese,F.
     An improvement of the resolution of the identity approximation for the formation of the Coulomb matrix
     J. Comp. Chem., 2003 24(14)1740-1747
     doi.org/10.1002/jcc.10318
  2. Neese,F.; Wennmohs,F.; Hansen,A.; Becker,U.
     Efficient, approximate and parallel Hartree-Fock and hybrid DFT calculations. A 'chain-of-spheres' algorithm for the Hartree-Fock exchange
     Chem. Phys., 2009 356(1-3)98-109
     doi.org/10.1016/j.chemphys.2008.10.036
  3. Bykov,D.; Petrenko,T.; Izsak,R.; Kossmann,S.; Becker,U.; Valeev,E.; Neese,F.
     Efficient implementation of the analytic second derivatives of Hartree-Fock and hybrid DFT energies: a detailed analysis of different approximations
     Molec. Phys., 2015 113 1961-1977
     doi.org/10.1080/00268976.2015.1025114
  4. Helmich-Paris,B.; de Souza,B.; Neese,F.; Izsák,R.
     An improved chain of spheres for exchange algorithm
     J. Chem. Phys., 2021 155 104109
     doi.org/doi: 10.1063/5.0058766.
  5. Neese,F.
     The SHARK Integral Generation and Digestion System
     J. Comp. Chem., 2022  1-16
     doi.org/10.1002/jcc.26942

List of suggested additional citations. These are papers that are important in the 'surrounding' of 
of this run, or papers that preceded the highly important papers. If you like your results we are grateful for a citation.

  1. Izsak,R.; Neese,F.
     An overlap fitted chain of spheres exchange method
     J. Chem. Phys., 2011 135 144105
     doi.org/10.1063/1.3646921
  2. Izsak,R.; Hansen,A.; Neese,F.
     The resolution of identity and chain of spheres approximations for the LPNO-CCSD singles Fock term
     Molec. Phys., 2012 110 2413-2417
     doi.org/10.1080/00268976.2012.687466
  3. Neese,F.
     The ORCA program system
     WIRES Comput. Molec. Sci., 2012 2(1)73-78
     doi.org/10.1002/wcms.81
  4. Izsak,R.; Neese,F.; Klopper,W.
     Robust fitting techniques in the chain of spheres approximation to the Fock exchange: The role of the complementary space
     J. Chem. Phys., 2013 139 
     doi.org/10.1063/1.4819264
  5. Neese,F.
     Software update: the ORCA program system, version 4.0
     WIRES Comput. Molec. Sci., 2018 8(1)1-6
     doi.org/10.1002/wcms.1327
  6. Neese,F.; Wennmohs,F.; Becker,U.; Riplinger,C.
     The ORCA quantum chemistry program package
     J. Chem. Phys., 2020 152 Art. No. L224108
     doi.org/10.1063/5.0004608

List of optional additional citations

  1. Neese,F.
     Approximate second-order SCF convergence for spin unrestricted wavefunctions
     Chem. Phys. Lett., 2000 325(1-3)93-98
     doi.org/10.1016/s0009-2614(00)00662-x

Timings for individual modules:

Sum of individual times          ...     4861.151 sec (=  81.019 min)
Startup calculation              ...      125.856 sec (=   2.098 min)   2.6 %
SCF iterations                   ...     1866.295 sec (=  31.105 min)  38.4 %
Property integrals               ...      806.289 sec (=  13.438 min)  16.6 %
SCF Response                     ...     1107.685 sec (=  18.461 min)  22.8 %
Property calculations            ...      464.006 sec (=   7.733 min)   9.5 %
SCF Gradient evaluation          ...      490.437 sec (=   8.174 min)  10.1 %
Geometry relaxation              ...        0.583 sec (=   0.010 min)   0.0 %
                             ****ORCA TERMINATED NORMALLY****
TOTAL RUN TIME: 0 days 1 hours 21 minutes 46 seconds 606 msec
