
                                 *****************
                                 * O   R   C   A *
                                 *****************

                                            #,                                       
                                            ###                                      
                                            ####                                     
                                            #####                                    
                                            ######                                   
                                           ########,                                 
                                     ,,################,,,,,                         
                               ,,#################################,,                 
                          ,,##########################################,,             
                       ,#########################################, ''#####,          
                    ,#############################################,,   '####,        
                  ,##################################################,,,,####,       
                ,###########''''           ''''###############################       
              ,#####''   ,,,,##########,,,,          '''####'''          '####       
            ,##' ,,,,###########################,,,                        '##       
           ' ,,###''''                  '''############,,,                           
         ,,##''                                '''############,,,,        ,,,,,,###''
      ,#''                                            '''#######################'''  
     '                                                          ''''####''''         
             ,#######,   #######,   ,#######,      ##                                
            ,#'     '#,  ##    ##  ,#'     '#,    #''#        ,####,   ,####,        
            ##       ##  ##   ,#'  ##            #'  '#       #'       #'  '#        
            ##       ##  #######   ##           ,######,      #####,   #    #        
            '#,     ,#'  ##    ##  '#,     ,#' ,#      #,     #,   #   #,  ,#        
             '#######'   ##     ##  '#######'  #'      '#     '####' # '####'        



                #########################################################
                #                        -***-                          #
                #          Department of theory and spectroscopy        #
                #                                                       #
                #                      Frank Neese                      #
                #                                                       #
                #     Directorship, Architecture, Infrastructure        #
                #                    SHARK, DRIVERS                     #
                #        Core code/Algorithms in most modules           #
                #                                                       #
                #        Max Planck Institute fuer Kohlenforschung      #
                #                Kaiser Wilhelm Platz 1                 #
                #                 D-45470 Muelheim/Ruhr                 #
                #                      Germany                          #
                #                                                       #
                #                  All rights reserved                  #
                #                        -***-                          #
                #########################################################


                         Program Version 6.0.1  -  RELEASE   -


 With contributions from (in alphabetic order):
[Max-Planck-Institut fuer Kohlenforschung]                               
  Daniel Aravena         : Magnetic Suceptibility                        
  Michael Atanasov       : Ab Initio Ligand Field Theory (pilot matlab implementation)
  Alexander A. Auer      : GIAO ZORA, VPT2 properties, NMR spectrum      
  Ute Becker             : All parallelization in ORCA, NUMFREQ, NUMCALC 
  Giovanni Bistoni       : ED, misc. LED, open-shell LED, HFLD           
  Martin Brehm           : Molecular dynamics                            
  Dmytro Bykov           : pre 5.0 version of the SCF Hessian            
  Marcos Casanova-Páez   : Triplet and SCS-CIS(D). UHF-(DLPNO)-IP/EA/STEOM-CCSD. UHF-CVS-IP/STEOM-CCSD   
  Vijay G. Chilkuri      : MRCI spin determinant printing, contributions to CSF-ICE 
  Pauline Colinet        : FMM embedding                                 
  Dipayan Datta          : RHF DLPNO-CCSD density                        
  Achintya Kumar Dutta   : EOM-CC, STEOM-CC                              
  Nicolas Foglia         : Exact transition moments, OPA infrastructure, MCD improvements    
  Dmitry Ganyushin       : Spin-Orbit,Spin-Spin,Magnetic field MRCI      
  Miquel Garcia-Rates    : C-PCM and meta-GGA Hessian, CCSD/C-PCM, Gaussian charge scheme 
  Tiago L. C. Gouveia    : GS-ROHF, GS-ROCIS                             
  Yang Guo               : DLPNO-NEVPT2, F12-NEVPT2, CIM, IAO-localization        
  Andreas Hansen         : Spin unrestricted coupled pair/coupled cluster methods 
  Ingolf Harden          : AUTO-CI MPn and infrastructure                
  Benjamin Helmich-Paris : MC-RPA, TRAH-(SCF,CASSCF), AVAS, COSX integrals, SCF dyn. polar. 
  Lee Huntington         : MR-EOM, pCC                                   
  Robert Izsak           : Overlap fitted RIJCOSX, COSX-SCS-MP3, EOM     
  Riya Kayal             : Wick's Theorem for AUTO-CI, AUTO-CI UHF-CCSDT 
  Emily Kempfer          : AUTO-CI, RHF CISDT and CCSDT                  
  Christian Kollmar      : KDIIS, OOCD, Brueckner-CCSD(T), CCSD density, CASPT2, CASPT2-K, improved NEVPT2 
  Axel Koslowski         : Symmetry handling                             
  Simone Kossmann        : meta-GGA functionals, TD-DFT gradient, OOMP2, (MP2 Hessian; deprecated post 5.0) 
  Lucas Lang             : DCDCAS                                        
  Marvin Lechner         : AUTO-CI (C++ implementation), FIC-MRCC        
  Spencer Leger          : CASSCF response                               
  Dagmar Lenk            : GEPOL surface, SMD, ORCA-2-JSON               
  Dimitrios Liakos       : Extrapolation schemes; Compound Job, initial MDCI parallelization 
  Dimitrios Manganas     : Further ROCIS development; embedding schemes. LFT, Crystal Embedding 
  Dimitrios Pantazis     : SARC Basis sets                               
  Anastasios Papadopoulos: AUTO-CI, single reference methods and gradients 
  Taras Petrenko         : pre 6.0 DFT Hessian and TD-DFT gradient, (ASA, deprecated), ECA, 1-Electron XAS/XES, NRVS 
  Peter Pinski           : DLPNO-MP2, DLPNO-MP2 Gradient                 
  Christoph Reimann      : Effective Core Potentials                     
  Marius Retegan         : Local ZFS, SOC                                
  Christoph Riplinger    : Optimizer, TS searches, QM/MM, DLPNO-CCSD(T), (RO)-DLPNO pert. Triples 
  Michael Roemelt        : Original ROCIS implementation                 
  Masaaki Saitow         : Open-shell DLPNO-CCSD energy and density      
  Barbara Sandhoefer     : DKH picture change effects                    
  Kantharuban Sivalingam : CASSCF convergence/infrastructure, NEVPT2 and variants, FIC-MRCI 
  Bernardo de Souza      : ESD, SOC TD-DFT                               
  Georgi L. Stoychev     : AutoAux, RI-MP2 NMR, DLPNO-MP2 response, X2C  
  Van Anh Tran           : RI-MP2 g-tensors                              
  Willem Van den Heuvel  : Paramagnetic NMR                              
  Zikuan Wang            : NOTCH, Electric field optimization            
  Frank Wennmohs         : Technical directorship and infrastructure     
  Hang Xu                : AUTO-CI-Response properties                   
                                                                         
[FACCTs GmbH]                                                            
  Markus Bursch, Miquel Garcia-Rates, Christoph Riplinger, Bernardo de Souza, Georgi L. Stoychev 
                                                                 
  APM, Basis sets (HGBS, AHGBS, def-TZVP (Ac-Lr), def2-XVPD (La-Lu)), CI-OPT, improved COSX, DLPNO-Multilevel,           
  DOCKER, DRACO, updates on ESD, GOAT, IRC, LR-CPCM, MBIS, meta-GGA TD-DFT gradient, ML-optimized integration grids, 
  MM, NACMEs, nearIR, NEB, NEB-TS, NL-DFT gradient (VV10), 2- and 3-layer-ONIOM, interface openCOSMO-RS, QMMM,   
  Crystal-QMMM, SF, symmetry and pop. for TD-DFT, r2SCAN hybrids, SOLVATOR                                   
                                                                         
[Other institutions]                                                     
  V. Asgeirsson          : NEB                                           
  Christoph Bannwarth    : sTDA-DFT, sTD-DFT, PBEh-3c, B97-3c, D3        
  Sebastian Ehlert       : rSCAN, r2SCAN, r2SCAN-3c, D4, dhf basis sets  
  Marvin Friede          : D4 for Fr, Ra, Ac-Lr                          
  Lars Goerigk           : TD-DFT with DH, B97 family of functionals     
  Stefan Grimme          : VdW corrections, initial TS optimization, DFT functionals, gCP, sTDA/sTD-DF 
  Waldemar Hujo          : DFT-NL                                        
  H. Jonsson             : NEB                                           
  Holger Kruse           : gCP                                           
  Marcel Mueller         : wB97X-3c, vDZP basis set                      
  Hagen Neugebauer       : wr2SCAN                                       
  Tobias Risthaus        : range-separated hybrid DFT                    
  Lukas Wittmann         : regularized MP2, r2SCAN double-hybrids, wr2SCAN        
                                                                         
We gratefully acknowledge several colleagues who have allowed us to      
interface, adapt or use parts of their codes:                            
  Ed Valeev, F. Pavosevic, A. Kumar             : LibInt (2-el integral package), F12 methods 
  Garnet Chan, S. Sharma, J. Yang, R. Olivares  : DMRG                   
  Ulf Ekstrom                                   : XCFun DFT Library      
  Mihaly Kallay                                 : mrcc  (arbitrary order and MRCC methods)
  Frank Weinhold                                : gennbo (NPA and NBO analysis)           
  Simon Mueller                                 : openCOSMO-RS                            
  Christopher J. Cramer and Donald G. Truhlar   : smd solvation model                     
  S Lehtola, MJT Oliveira, MAL Marques          : LibXC Library                           
  Liviu Ungur et al                             : ANISO software                          


 Your calculation uses the libint2 library for the computation of 2-el integrals
 For citations please refer to: http://libint.valeyev.net

 Your ORCA version has been built with support for libXC version: 6.2.2
 For citations please refer to: https://libxc.gitlab.io

 This ORCA versions uses:
   CBLAS   interface :  Fast vector & matrix operations
   LAPACKE interface :  Fast linear algebra routines
   SCALAPACK package :  Parallel linear algebra routines
   Shared memory     :  Shared parallel matrices
   BLAS/LAPACK       :  OpenBLAS 0.3.27  USE64BITINT DYNAMIC_ARCH NO_AFFINITY Cooperlake SINGLE_THREADED
        Core in use  :  Cooperlake
   Copyright (c) 2011-2014, The OpenBLAS Project


NOTE: MaxCore=6684 MB was set to SCF,MP2,MDCI,CIPSI,MRCI and CIS
      => If you want to overwrite this, your respective input block should be placed after the MaxCore statement
Warning: RI is on but no J-basis has been assigned. Assigning Def2/J (nothing to worry about!)
================================================================================

----- Orbital basis set information -----
Your calculation utilizes the basis: def2-TZVP
   F. Weigend and R. Ahlrichs, Phys. Chem. Chem. Phys. 7, 3297 (2005).

----- AuxJ basis set information -----
Your calculation utilizes the auxiliary basis: def2/J
   F. Weigend, Phys. Chem. Chem. Phys. 8, 1057 (2006).

================================================================================
                                        WARNINGS
                       Please study these warnings very carefully!
================================================================================


WARNING: your system is open-shell and RHF/RKS was chosen
  ===> : WILL SWITCH to UHF/UKS


WARNING: Geometry Optimization
  ===> : Switching off AutoStart
         For restart on a previous wavefunction, please use MOREAD

================================================================================
                                       INPUT FILE
================================================================================
NAME = SIDVIL-S6.inp
|  1> ! PBE0 def2-TZVP Opt Freq DEFGRID3 SlowConv
|  2> 
|  3> %maxcore 6684
|  4> 
|  5> %pal
|  6>     nprocs 16
|  7> end
|  8> 
|  9> *xyz 0 6
| 10> Fe 9.11683714732 -0.15537480456775 0.62354200556985
| 11> O 7.96207079087607 1.30792289413595 1.08459691316404
| 12> O 7.17748926933822 2.72904734061412 2.61936804471399
| 13> O 8.97632087487932 -0.26919095422095 2.8020240778712
| 14> C 7.80821915977753 1.75374008828686 2.30648404668268
| 15> C 8.52804070449596 0.93853169138459 3.38087298142835
| 16> H 9.37222912147424 1.52928182395639 3.74947873429043
| 17> H 7.8359108381016 0.74484864790734 4.2039167045338
| 18> O 9.97629635710245 0.69046257591643 -1.08479023255834
| 19> O 9.60559241005037 -0.09946728809996 -3.07371149849201
| 20> N 9.42385246930651 -0.12383147416165 -1.90165115627323
| 21> O 7.28862033624536 -1.42232850631974 0.86269886059432
| 22> H 6.56858004532118 -0.78937570888489 0.97065502741299
| 23> H 7.13463174189653 -1.86671224317701 0.01875397252393
| 24> O 10.41567123658453 -1.44475749185293 1.07487428217749
| 25> O 11.68866214685733 -2.48356115417466 2.58806999343077
| 26> C 10.80654079294328 -1.72269387270028 2.29440470935587
| 27> C 10.05874028990661 -0.96218564343429 3.38889385502448
| 28> H 9.70646488717784 -1.67015415837004 4.14175336108692
| 29> H 10.76003652200675 -0.26083460824388 3.85178864531409
| 30> O 8.65975554677535 -0.95847608411145 -1.31928027038845
| 31> O 10.80702452078254 1.32700053897652 1.34545196809984
| 32> H 11.6350022794267 1.02760186804936 0.95309841755066
| 33> H 10.62261051135309 2.18050652309192 0.93730655688621
| 34> *
| 35> 
| 36>                          ****END OF INPUT****
================================================================================

                       *****************************
                       * Geometry Optimization Run *
                       *****************************

Geometry optimization settings:
Update method            Update   .... BFGS
Choice of coordinates    CoordSys .... (2022) Redundant Internals
Initial Hessian          InHess   .... Almloef's Model
Max. no of cycles        MaxIter  .... 72

Convergence Tolerances:
Energy Change            TolE     ....  5.0000e-06 Eh
Max. Gradient            TolMAXG  ....  3.0000e-04 Eh/bohr
RMS Gradient             TolRMSG  ....  1.0000e-04 Eh/bohr
Max. Displacement        TolMAXD  ....  4.0000e-03 bohr
RMS Displacement         TolRMSD  ....  2.0000e-03 bohr
Strict Convergence                .... False

------------------------------------------------------------------------------
                        ORCA OPTIMIZATION COORDINATE SETUP
------------------------------------------------------------------------------

The optimization will be done in redundant internal coordinates (2022)
Making redundant internal coordinates   ...  (2022 redundants) done
Evaluating the initial hessian          ...  (Almloef) done
Evaluating the coordinates              ...  done
Calculating the B-matrix                .... done
Calculating the G-matrix                .... done
Diagonalizing the G-matrix              .... done
The first mode is                       ....  127
The number of degrees of freedom        ....   66

    -----------------------------------------------------------------
                    Redundant Internal Coordinates


    -----------------------------------------------------------------
         Definition                    Initial Value    Approx d2E/dq
    -----------------------------------------------------------------
      1. B(O   1,Fe  0)                  1.9202         0.807321   
      2. B(O   3,Fe  0)                  2.1860         0.304141   
      3. B(C   4,O   1)                  1.3097         0.751480   
      4. B(C   4,O   2)                  1.2029         1.112756   
      5. B(C   5,O   3)                  1.4123         0.515565   
      6. B(C   5,C   4)                  1.5287         0.375320   
      7. B(H   6,C   5)                  1.0943         0.354446   
      8. B(H   7,C   5)                  1.0927         0.356567   
      9. B(O   8,Fe  0)                  2.0911         0.431035   
     10. B(N  10,O   9)                  1.1863         1.059194   
     11. B(N  10,O   8)                  1.2789         0.753875   
     12. B(N  10,Fe  0)                  2.5440         0.081638   
     13. B(O  11,Fe  0)                  2.2371         0.252035   
     14. B(H  12,O  11)                  0.9647         0.510963   
     15. B(H  13,O  11)                  0.9661         0.508354   
     16. B(O  14,Fe  0)                  1.8850         0.918923   
     17. B(C  16,O  15)                  1.2014         1.118970   
     18. B(C  16,O  14)                  1.3105         0.749533   
     19. B(C  17,C  16)                  1.5282         0.376013   
     20. B(C  17,O   3)                  1.4129         0.514444   
     21. B(H  18,C  17)                  1.0918         0.357674   
     22. B(H  19,C  17)                  1.0945         0.354166   
     23. B(O  20,H  13)                  2.2229         0.005025   
     24. B(O  20,N  10)                  1.2726         0.771331   
     25. B(O  20,Fe  0)                  2.1514         0.345351   
     26. B(O  21,Fe  0)                  2.3612         0.159769   
     27. B(H  22,O  21)                  0.9639         0.512536   
     28. B(H  23,O  21)                  0.9639         0.512598   
     29. A(O   8,Fe  0,O  14)          100.9000         0.547012   
     30. A(O   8,Fe  0,N  10)           30.0538         0.353794   
     31. A(O   1,Fe  0,N  10)          107.5451         0.394206   
     32. A(O   8,Fe  0,O  20)           60.0365         0.456011   
     33. A(O  14,Fe  0,O  21)           82.1260         0.454865   
     34. A(O   3,Fe  0,O  21)           76.9390         0.373861   
     35. A(O   1,Fe  0,O   8)           97.7634         0.533784   
     36. A(O   1,Fe  0,O   3)           76.2161         0.500029   
     37. A(N  10,Fe  0,O  14)           99.3806         0.403283   
     38. A(O   1,Fe  0,O  11)           85.0925         0.482913   
     39. A(O   1,Fe  0,O  20)          111.9333         0.512023   
     40. A(O   3,Fe  0,O  20)          150.0968         0.428159   
     41. A(O   3,Fe  0,O   8)          149.5027         0.445606   
     42. A(O   1,Fe  0,O  21)           83.0298         0.444298   
     43. A(N  10,Fe  0,O  20)           29.9894         0.340839   
     44. A(O   3,Fe  0,O  11)           79.1315         0.404820   
     45. A(O  20,Fe  0,O  21)          131.4935         0.382172   
     46. A(N  10,Fe  0,O  21)          102.0818         0.300521   
     47. A(O   8,Fe  0,O  21)           72.6396         0.397254   
     48. A(O  11,Fe  0,O  21)          155.2076         0.361998   
     49. A(O   8,Fe  0,O  11)          130.7159         0.430756   
     50. A(N  10,Fe  0,O  11)          102.2255         0.323509   
     51. A(O  11,Fe  0,O  20)           73.2322         0.414035   
     52. A(O  14,Fe  0,O  20)           96.1581         0.524603   
     53. A(O  11,Fe  0,O  14)           98.6335         0.494628   
     54. A(O   1,Fe  0,O  14)          151.4182         0.616912   
     55. A(O   3,Fe  0,O  14)           76.7066         0.512253   
     56. A(Fe  0,O   1,C   4)          123.6436         0.524697   
     57. A(Fe  0,O   3,C   5)          112.6024         0.409765   
     58. A(C   5,O   3,C  17)          119.4952         0.401068   
     59. A(Fe  0,O   3,C  17)          112.9690         0.409607   
     60. A(O   1,C   4,O   2)          125.4675         0.493690   
     61. A(O   1,C   4,C   5)          114.7608         0.408065   
     62. A(O   2,C   4,C   5)          119.7659         0.437711   
     63. A(O   3,C   5,C   4)          108.5069         0.381983   
     64. A(H   6,C   5,H   7)          109.3061         0.289669   
     65. A(C   4,C   5,H   7)          109.0042         0.324042   
     66. A(O   3,C   5,H   7)          110.9895         0.339475   
     67. A(C   4,C   5,H   6)          108.1856         0.323725   
     68. A(O   3,C   5,H   6)          110.7833         0.339137   
     69. A(Fe  0,O   8,N  10)           94.9749         0.464104   
     70. A(O   9,N  10,O  20)          123.8869         0.484836   
     71. A(O   8,N  10,O  20)          112.6224         0.455514   
     72. A(Fe  0,N  10,O  20)           57.6686         0.347730   
     73. A(O   8,N  10,O   9)          123.4907         0.482790   
     74. A(Fe  0,N  10,O   8)           54.9713         0.346393   
     75. A(H  12,O  11,H  13)          106.2936         0.319735   
     76. A(Fe  0,O  11,H  13)          107.2989         0.353112   
     77. A(Fe  0,O  11,H  12)          104.4972         0.353418   
     78. A(Fe  0,O  14,C  16)          124.9891         0.537391   
     79. A(O  15,C  16,C  17)          119.9602         0.438297   
     80. A(O  14,C  16,C  17)          114.5190         0.408011   
     81. A(O  14,C  16,O  15)          125.5079         0.493962   
     82. A(H  18,C  17,H  19)          109.3056         0.289774   
     83. A(C  16,C  17,H  19)          107.9532         0.323781   
     84. A(O   3,C  17,H  19)          110.6244         0.338969   
     85. A(C  16,C  17,H  18)          109.2099         0.324305   
     86. A(O   3,C  17,H  18)          110.9323         0.339528   
     87. A(O   3,C  17,C  16)          108.7521         0.381961   
     88. A(Fe  0,O  20,N  10)           92.3420         0.447606   
     89. A(H  22,O  21,H  23)          105.4873         0.320330   
     90. A(Fe  0,O  21,H  23)          106.8280         0.327670   
     91. A(Fe  0,O  21,H  22)          107.1826         0.327664   
     92. D(C   4,O   1,Fe  0,N  10)   -165.6397         0.005164   
     93. D(C   4,O   1,Fe  0,O  11)     93.0711         0.005164   
     94. D(C   4,O   1,Fe  0,O  21)    -65.1242         0.005164   
     95. D(C   4,O   1,Fe  0,O  20)    162.7841         0.005164   
     96. D(C   4,O   1,Fe  0,O   3)     13.0797         0.005164   
     97. D(C   4,O   1,Fe  0,O   8)   -136.4582         0.005164   
     98. D(C   4,O   1,Fe  0,O  14)     -5.9806         0.005164   
     99. D(C   5,O   3,Fe  0,O  20)   -128.8561         0.002051   
    100. D(C  17,O   3,Fe  0,O  11)    114.6746         0.002051   
    101. D(C  17,O   3,Fe  0,O   1)   -157.7664         0.002051   
    102. D(C  17,O   3,Fe  0,O  21)    -71.8584         0.002051   
    103. D(C   5,O   3,Fe  0,O  14)    152.0809         0.002051   
    104. D(C  17,O   3,Fe  0,O   8)    -75.9566         0.002051   
    105. D(C  17,O   3,Fe  0,O  20)     92.0587         0.002051   
    106. D(C  17,O   3,Fe  0,O  14)     12.9957         0.002051   
    107. D(C   5,O   3,Fe  0,O   8)     63.1287         0.002051   
    108. D(C   5,O   3,Fe  0,O  21)     67.2269         0.002051   
    109. D(C   5,O   3,Fe  0,O  11)   -106.2401         0.002051   
    110. D(C   5,O   3,Fe  0,O   1)    -18.6812         0.002051   
    111. D(C   5,C   4,O   1,Fe  0)     -5.2230         0.042909   
    112. D(O   2,C   4,O   1,Fe  0)    173.8924         0.042909   
    113. D(O   3,C   5,C   4,O   2)    169.2818         0.010528   
    114. D(H   6,C   5,C   4,O   2)    -70.4653         0.010528   
    115. D(O   3,C   5,C   4,O   1)    -11.5481         0.010528   
    116. D(H   6,C   5,O   3,Fe  0)    -98.0999         0.022856   
    117. D(C   4,C   5,O   3,Fe  0)     20.5243         0.022856   
    118. D(C   4,C   5,O   3,C  17)    156.6722         0.022856   
    119. D(H   6,C   5,O   3,C  17)     38.0480         0.022856   
    120. D(H   6,C   5,C   4,O   1)    108.7048         0.010528   
    121. D(H   7,C   5,O   3,Fe  0)    140.2745         0.022856   
    122. D(H   7,C   5,O   3,C  17)    -83.5776         0.022856   
    123. D(H   7,C   5,C   4,O   1)   -132.5315         0.010528   
    124. D(N  10,O   8,Fe  0,O  21)    168.0110         0.002538   
    125. D(N  10,O   8,Fe  0,O  20)     -0.9433         0.002538   
    126. D(N  10,O   8,Fe  0,O  14)     89.9208         0.002538   
    127. D(N  10,O   8,Fe  0,O  11)    -21.6357         0.002538   
    128. D(N  10,O   8,Fe  0,O   3)    172.1939         0.002538   
    129. D(N  10,O   8,Fe  0,O   1)   -111.8316         0.002538   
    130. D(O  20,N  10,O   8,Fe  0)      1.4967         0.056522   
    131. D(O   9,N  10,O   8,Fe  0)   -178.5718         0.056522   
    132. D(O  20,N  10,O   3,C  17)    100.0207         0.001500   
    133. D(O   8,N  10,O   3,C   5)     54.5464         0.001500   
    134. D(O  20,N  10,Fe  0,O  21)    169.9371         0.001546   
    135. D(O   8,N  10,O   3,C  17)    -84.0467         0.001500   
    136. D(O  20,N  10,Fe  0,O  14)     86.0586         0.001546   
    137. D(O  20,N  10,Fe  0,O  11)    -14.9802         0.001546   
    138. D(O  20,N  10,Fe  0,O   8)   -178.3649         0.001546   
    139. D(O  20,N  10,Fe  0,O   1)   -103.6452         0.001546   
    140. D(O  20,N  10,O   3,C   5)   -121.3862         0.001500   
    141. D(O   8,N  10,Fe  0,O  20)    178.3649         0.001546   
    142. D(O   8,N  10,Fe  0,O  11)    163.3847         0.001546   
    143. D(O   8,N  10,Fe  0,O   1)     74.7197         0.001546   
    144. D(O   8,N  10,Fe  0,O  21)    -11.6980         0.001546   
    145. D(O   8,N  10,Fe  0,O  14)    -95.5765         0.001546   
    146. D(H  13,O  11,Fe  0,O   1)    120.9924         0.001881   
    147. D(H  12,O  11,Fe  0,O  21)     69.9607         0.001881   
    148. D(H  12,O  11,Fe  0,O  20)   -106.2638         0.001881   
    149. D(H  12,O  11,Fe  0,O  14)    159.8616         0.001881   
    150. D(H  12,O  11,Fe  0,N  10)    -98.5087         0.001881   
    151. D(H  12,O  11,Fe  0,O   8)    -87.6180         0.001881   
    152. D(H  12,O  11,Fe  0,O   3)     85.2864         0.001881   
    153. D(H  13,O  11,Fe  0,O   3)   -162.1292         0.001881   
    154. D(H  12,O  11,Fe  0,O   1)      8.4080         0.001881   
    155. D(H  13,O  11,Fe  0,O   8)     24.9664         0.001881   
    156. D(C  16,O  14,Fe  0,O  20)   -159.5273         0.006270   
    157. D(C  16,O  14,Fe  0,O  11)    -85.6152         0.006270   
    158. D(C  16,O  14,Fe  0,N  10)    170.3700         0.006270   
    159. D(C  16,O  14,Fe  0,O   8)    139.8659         0.006270   
    160. D(C  16,O  14,Fe  0,O   3)     -9.0206         0.006270   
    161. D(C  16,O  14,Fe  0,O  21)     69.3404         0.006270   
    162. D(C  16,O  14,Fe  0,O   1)      9.9990         0.006270   
    163. D(C  17,C  16,O  14,Fe  0)      3.4251         0.042662   
    164. D(O  15,C  16,O  14,Fe  0)   -175.2620         0.042662   
    165. D(H  19,C  17,C  16,O  14)   -111.7599         0.010564   
    166. D(H  18,C  17,C  16,O  15)    -51.7388         0.010564   
    167. D(H  18,C  17,C  16,O  14)    129.4948         0.010564   
    168. D(O   3,C  17,C  16,O  15)   -172.9256         0.010564   
    169. D(O   3,C  17,C  16,O  14)      8.3081         0.010564   
    170. D(H  19,C  17,O   3,C   5)    -31.9312         0.022752   
    171. D(H  19,C  17,O   3,Fe  0)    104.0684         0.022752   
    172. D(H  18,C  17,O   3,C   5)     89.5466         0.022752   
    173. D(H  18,C  17,O   3,Fe  0)   -134.4538         0.022752   
    174. D(C  16,C  17,O   3,C   5)   -150.3285         0.022752   
    175. D(C  16,C  17,O   3,Fe  0)    -14.3289         0.022752   
    176. D(Fe  0,O  20,N  10,O   9)    178.6184         0.064852   
    177. D(Fe  0,O  20,N  10,O   8)     -1.4505         0.064852   
    178. D(N  10,O  20,Fe  0,O  21)    -13.1856         0.002207   
    179. D(N  10,O  20,Fe  0,O  14)    -98.1070         0.002207   
    180. D(N  10,O  20,Fe  0,O  11)    164.7019         0.002207   
    181. D(N  10,O  20,Fe  0,O   8)      0.9451         0.002207   
    182. D(N  10,O  20,Fe  0,O   3)   -172.0681         0.002207   
    183. D(N  10,O  20,Fe  0,O   1)     87.2726         0.002207   
    184. D(H  23,O  21,Fe  0,O   8)     53.8357         0.001657   
    185. D(H  23,O  21,Fe  0,O   3)   -123.9865         0.001657   
    186. D(H  23,O  21,Fe  0,O   1)    -46.5808         0.001657   
    187. D(H  22,O  21,Fe  0,O  20)    -46.0378         0.001657   
    188. D(H  22,O  21,Fe  0,O  14)     45.2371         0.001657   
    189. D(H  22,O  21,Fe  0,O  11)    138.7906         0.001657   
    190. D(H  22,O  21,Fe  0,N  10)    -52.7336         0.001657   
    191. D(H  22,O  21,Fe  0,O   8)    -58.8407         0.001657   
    192. D(H  22,O  21,Fe  0,O   3)    123.3370         0.001657   
    193. D(H  22,O  21,Fe  0,O   1)   -159.2573         0.001657   
    -----------------------------------------------------------------

Number of atoms                         .... 24
Number of degrees of freedom            .... 193


         *************************************************************
         *                GEOMETRY OPTIMIZATION CYCLE   1            *
         *************************************************************
---------------------------------
CARTESIAN COORDINATES (ANGSTROEM)
---------------------------------
  Fe     9.116837   -0.155375    0.623542
  O      7.962071    1.307923    1.084597
  O      7.177489    2.729047    2.619368
  O      8.976321   -0.269191    2.802024
  C      7.808219    1.753740    2.306484
  C      8.528041    0.938532    3.380873
  H      9.372229    1.529282    3.749479
  H      7.835911    0.744849    4.203917
  O      9.976296    0.690463   -1.084790
  O      9.605592   -0.099467   -3.073711
  N      9.423852   -0.123831   -1.901651
  O      7.288620   -1.422329    0.862699
  H      6.568580   -0.789376    0.970655
  H      7.134632   -1.866712    0.018754
  O     10.415671   -1.444757    1.074874
  O     11.688662   -2.483561    2.588070
  C     10.806541   -1.722694    2.294405
  C     10.058740   -0.962186    3.388894
  H      9.706465   -1.670154    4.141753
  H     10.760037   -0.260835    3.851789
  O      8.659756   -0.958476   -1.319280
  O     10.807025    1.327001    1.345452
  H     11.635002    1.027602    0.953098
  H     10.622611    2.180507    0.937307

----------------------------
CARTESIAN COORDINATES (A.U.)
----------------------------
  NO LB      ZA    FRAG     MASS         X           Y           Z
   0 Fe   26.0000    0    55.850   17.228325   -0.293616    1.178324
   1 O     8.0000    0    15.999   15.046133    2.471616    2.049591
   2 O     8.0000    0    15.999   13.563489    5.157152    4.949888
   3 O     8.0000    0    15.999   16.962788   -0.508697    5.295058
   4 C     6.0000    0    12.011   14.755396    3.314088    4.358623
   5 C     6.0000    0    12.011   16.115661    1.773568    6.388924
   6 H     1.0000    0     1.008   17.710946    2.889924    7.085488
   7 H     1.0000    0     1.008   14.807725    1.407560    7.944251
   8 O     8.0000    0    15.999   18.852468    1.304785   -2.049956
   9 O     8.0000    0    15.999   18.151939   -0.187966   -5.808473
  10 N     7.0000    0    14.007   17.808500   -0.234008   -3.593600
  11 O     8.0000    0    15.999   13.773496   -2.687811    1.630265
  12 H     1.0000    0     1.008   12.412817   -1.491704    1.834272
  13 H     1.0000    0     1.008   13.482500   -3.527575    0.035440
  14 O     8.0000    0    15.999   19.682766   -2.730196    2.031218
  15 O     8.0000    0    15.999   22.088370   -4.693250    4.890744
  16 C     6.0000    0    12.011   20.421403   -3.255420    4.335797
  17 C     6.0000    0    12.011   19.008264   -1.818267    6.404081
  18 H     1.0000    0     1.008   18.342560   -3.156134    7.826780
  19 H     1.0000    0     1.008   20.333522   -0.492906    7.278826
  20 O     8.0000    0    15.999   16.364566   -1.811257   -2.493078
  21 O     8.0000    0    15.999   20.422317    2.507668    2.542536
  22 H     1.0000    0     1.008   21.986968    1.941886    1.801095
  23 H     1.0000    0     1.008   20.073825    4.120560    1.771253

--------------------------------
INTERNAL COORDINATES (ANGSTROEM)
--------------------------------
 Fe     0   0   0     0.000000000000     0.00000000     0.00000000
 O      1   0   0     1.920233611002     0.00000000     0.00000000
 O      2   1   0     2.233984172405   149.42004221     0.00000000
 O      1   2   3     2.185974171412    76.21612276    18.34195698
 C      3   2   1     1.202888534886    28.52188111   349.97336341
 C      4   1   2     1.412308448257   112.60243112   341.31881703
 H      6   4   1     1.094308002135   110.78328364   261.90008591
 H      6   4   1     1.092683780162   110.98945725   140.27450385
 O      1   2   3     2.091054768133    97.76337672   228.80405881
 O      9   1   2     2.171915838265   122.06402784   247.40081626
 N     10   9   1     1.186317185843    29.41064331     1.67899831
 O      1   2   3     2.237128604257    85.09247087    98.33332624
 H     12   1   2     0.964749603933   104.49722910     8.40802789
 H     12   1   2     0.966143036446   107.29891707   120.99241378
 O      1   2   3     1.884987673597   151.41818717   359.28158916
 O     15   1   2     2.233692048391   150.80978744     5.74654203
 C     16  15   1     1.201372715738    28.52708550     7.97567619
 C      4   1   2     1.412901116371   112.96903062   202.23357486
 H     18   4   1     1.091840104309   110.93232502   225.54618093
 H     18   4   1     1.094523305644   110.62440078   104.06838225
 O     11  10   9     1.272647469123   123.88687603   179.92380078
 O      1   2   3     2.361212402678    83.02979400   300.13806225
 H     22   1   2     0.963912880706   107.18260785   200.74269974
 H     22   1   2     0.963879488572   106.82796366   313.41917930

---------------------------
INTERNAL COORDINATES (A.U.)
---------------------------
 Fe     0   0   0     0.000000000000     0.00000000     0.00000000
 O      1   0   0     3.628715637945     0.00000000     0.00000000
 O      2   1   0     4.221618273360   149.42004221     0.00000000
 O      1   2   3     4.130892519794    76.21612276    18.34195698
 C      3   2   1     2.273129900568    28.52188111   349.97336341
 C      4   1   2     2.668876183828   112.60243112   341.31881703
 H      6   4   1     2.067942430194   110.78328364   261.90008591
 H      6   4   1     2.064873095484   110.98945725   140.27450385
 O      1   2   3     3.951520842802    97.76337672   228.80405881
 O      9   1   2     4.104326120248   122.06402784   247.40081626
 N     10   9   1     2.241814589207    29.41064331     1.67899831
 O      1   2   3     4.227560388407    85.09247087    98.33332624
 H     12   1   2     1.823112539242   104.49722910     8.40802789
 H     12   1   2     1.825745745078   107.29891707   120.99241378
 O      1   2   3     3.562110468916   151.41818717   359.28158916
 O     15   1   2     4.221066238977   150.80978744     5.74654203
 C     16  15   1     2.270265417510    28.52708550     7.97567619
 C      4   1   2     2.669996164252   112.96903062   202.23357486
 H     18   4   1     2.063278779175   110.93232502   225.54618093
 H     18   4   1     2.068349294861   110.62440078   104.06838225
 O     11  10   9     2.404955181671   123.88687603   179.92380078
 O      1   2   3     4.462044785080    83.02979400   300.13806225
 H     22   1   2     1.821531361493   107.18260785   200.74269974
 H     22   1   2     1.821468259505   106.82796366   313.41917930

---------------------
BASIS SET INFORMATION
---------------------
There are 5 groups of distinct atoms

 Group   1 Type Fe  : 17s11p7d1f contracted to 6s4p4d1f pattern {842111/6311/4111/1}
 Group   2 Type O   : 11s6p2d1f contracted to 5s3p2d1f pattern {62111/411/11/1}
 Group   3 Type C   : 11s6p2d1f contracted to 5s3p2d1f pattern {62111/411/11/1}
 Group   4 Type H   : 5s1p contracted to 3s1p pattern {311/1}
 Group   5 Type N   : 11s6p2d1f contracted to 5s3p2d1f pattern {62111/411/11/1}

Atom   0Fe   basis set group =>   1
Atom   1O    basis set group =>   2
Atom   2O    basis set group =>   2
Atom   3O    basis set group =>   2
Atom   4C    basis set group =>   3
Atom   5C    basis set group =>   3
Atom   6H    basis set group =>   4
Atom   7H    basis set group =>   4
Atom   8O    basis set group =>   2
Atom   9O    basis set group =>   2
Atom  10N    basis set group =>   5
Atom  11O    basis set group =>   2
Atom  12H    basis set group =>   4
Atom  13H    basis set group =>   4
Atom  14O    basis set group =>   2
Atom  15O    basis set group =>   2
Atom  16C    basis set group =>   3
Atom  17C    basis set group =>   3
Atom  18H    basis set group =>   4
Atom  19H    basis set group =>   4
Atom  20O    basis set group =>   2
Atom  21O    basis set group =>   2
Atom  22H    basis set group =>   4
Atom  23H    basis set group =>   4
---------------------------------
AUXILIARY/J BASIS SET INFORMATION
---------------------------------
There are 5 groups of distinct atoms

 Group   1 Type Fe  : 19s5p5d3f3g contracted to 8s5p5d2f3g pattern {121111111/11111/11111/21/111}
 Group   2 Type O   : 12s5p4d2f1g contracted to 6s4p3d1f1g pattern {711111/2111/211/2/1}
 Group   3 Type C   : 12s5p4d2f1g contracted to 6s4p3d1f1g pattern {711111/2111/211/2/1}
 Group   4 Type H   : 5s2p1d contracted to 3s1p1d pattern {311/2/1}
 Group   5 Type N   : 12s5p4d2f1g contracted to 6s4p3d1f1g pattern {711111/2111/211/2/1}

Atom   0Fe   basis set group =>   1
Atom   1O    basis set group =>   2
Atom   2O    basis set group =>   2
Atom   3O    basis set group =>   2
Atom   4C    basis set group =>   3
Atom   5C    basis set group =>   3
Atom   6H    basis set group =>   4
Atom   7H    basis set group =>   4
Atom   8O    basis set group =>   2
Atom   9O    basis set group =>   2
Atom  10N    basis set group =>   5
Atom  11O    basis set group =>   2
Atom  12H    basis set group =>   4
Atom  13H    basis set group =>   4
Atom  14O    basis set group =>   2
Atom  15O    basis set group =>   2
Atom  16C    basis set group =>   3
Atom  17C    basis set group =>   3
Atom  18H    basis set group =>   4
Atom  19H    basis set group =>   4
Atom  20O    basis set group =>   2
Atom  21O    basis set group =>   2
Atom  22H    basis set group =>   4
Atom  23H    basis set group =>   4


           ************************************************************
           *        Program running with 16 parallel MPI-processes    *
           *              working on a common directory               *
           ************************************************************
------------------------------------------------------------------------------
                             ORCA STARTUP CALCULATIONS
                           -- RI-GTO INTEGRALS CHOSEN --
------------------------------------------------------------------------------
------------------------------------------------------------------------------
                   ___                                                        
                  /   \      - P O W E R E D   B Y -                         
                 /     \                                                     
                 |  |  |   _    _      __       _____    __    __             
                 |  |  |  | |  | |    /  \     |  _  \  |  |  /  |          
                  \  \/   | |  | |   /    \    | | | |  |  | /  /          
                 / \  \   | |__| |  /  /\  \   | |_| |  |  |/  /          
                |  |  |   |  __  | /  /__\  \  |    /   |      \           
                |  |  |   | |  | | |   __   |  |    \   |  |\   \          
                \     /   | |  | | |  |  |  |  | |\  \  |  | \   \       
                 \___/    |_|  |_| |__|  |__|  |_| \__\ |__|  \__/        
                                                                              
                      - O R C A' S   B I G   F R I E N D -                    
                                      &                                       
                       - I N T E G R A L  F E E D E R -                       
                                                                              
 v1 FN, 2020, v2 2021, v3 2022-2024                                           
------------------------------------------------------------------------------


----------------------
SHARK INTEGRAL PACKAGE
----------------------

Number of atoms                             ...     24
Number of basis functions                   ...    558
Number of shells                            ...    212
Maximum angular momentum                    ...      3
Integral batch strategy                     ... SHARK/LIBINT Hybrid
RI-J (if used) integral strategy            ... SPLIT-RIJ (Revised 2003 algorithm where possible)
Printlevel                                  ...      1
Contraction scheme used                     ... SEGMENTED contraction
Prescreening option                         ... SCHWARTZ
   Thresh                                   ... 2.500e-11
   Tcut                                     ... 2.500e-12
   Tpresel                                  ... 2.500e-12 
Coulomb Range Separation                    ... NOT USED
Exchange Range Separation                   ... NOT USED
Multipole approximations                    ... NOT USED
Finite Nucleus Model                        ... NOT USED
CABS basis                                  ... NOT available
Auxiliary Coulomb fitting basis             ... AVAILABLE
   # of basis functions in Aux-J            ...    912
   # of shells in Aux-J                     ...    288
   Maximum angular momentum in Aux-J        ...      4
Auxiliary J/K fitting basis                 ... NOT available
Auxiliary Correlation fitting basis         ... NOT available
Auxiliary 'external' fitting basis          ... NOT available

Checking pre-screening integrals            ... done (  0.0 sec) Dimension = 212
Check shell pair data                       ... done (  0.0 sec)
Shell pair information
Shell pair cut-off parameter TPreSel        ...   2.5e-12
Total number of shell pairs                 ...     22578
Shell pairs after pre-screening             ...     17466
Total number of primitive shell pairs       ...     74333
Primitive shell pairs kept                  ...     37947
          la=0 lb=0:   4102 shell pairs
          la=1 lb=0:   4829 shell pairs
          la=1 lb=1:   1460 shell pairs
          la=2 lb=0:   2644 shell pairs
          la=2 lb=1:   1606 shell pairs
          la=2 lb=2:    462 shell pairs
          la=3 lb=0:   1154 shell pairs
          la=3 lb=1:    731 shell pairs
          la=3 lb=2:    387 shell pairs
          la=3 lb=3:     91 shell pairs

Calculating one electron integrals          ... done (  0.0 sec)
done (  0.1 sec)
Calculating Nuclear repulsion               ... done (  0.0 sec) ENN=   1750.901687433390 Eh

Diagonalization of the overlap matrix:
Smallest eigenvalue                        ... 2.921e-04
Time for diagonalization                   ...    0.037 sec
Threshold for overlap eigenvalues          ... 1.000e-07
Number of eigenvalues below threshold      ... 0
Time for construction of square roots      ...    0.025 sec
Total time needed                          ...    0.075 sec

-------------------
DFT GRID GENERATION
-------------------

General Integration Accuracy     IntAcc      ... 4.959
Radial Grid Type                 RadialGrid  ... OptM3 with GC (2021)
Angular Grid (max. ang.)         AngularGrid ... 6 (Lebedev-590)
Angular grid pruning method      GridPruning ... 4 (adaptive)
Weight generation scheme         WeightScheme... mBecke (2022)
Basis function cutoff            BFCut       ... 1.0000e-11
Integration weight cutoff        WCut        ... 1.0000e-14
Partially contracted basis set               ... off
Rotationally invariant grid construction     ... off
Angular grids for H and He will be reduced by one unit
Core-polarized basis detected: some atoms will have their core
                               angular grid increased.

Total number of grid points                  ...   311319
Total number of batches                      ...     4874
Average number of points per batch           ...       63
Average number of grid points per atom       ...    12972

--------------------
COSX GRID GENERATION
--------------------

GRIDX 1
-------
General Integration Accuracy     IntAcc      ... 4.020
Radial Grid Type                 RadialGrid  ... OptM3 with GC (2021)
Angular Grid (max. ang.)         AngularGrid ... 2 (Lebedev-110)
Angular grid pruning method      GridPruning ... 4 (adaptive)
Weight generation scheme         WeightScheme... mBecke (2022)
Basis function cutoff            BFCut       ... 1.0000e-11
Integration weight cutoff        WCut        ... 1.0000e-14
Partially contracted basis set               ... on
Rotationally invariant grid construction     ... off
Angular grids for H and He will be reduced by one unit
Core-polarized basis detected: some atoms will have their core
                               angular grid increased.

Total number of grid points                  ...    38476
Total number of batches                      ...      309
Average number of points per batch           ...      124
Average number of grid points per atom       ...     1603
UseSFitting                                  ... on

GRIDX 2
-------
General Integration Accuracy     IntAcc      ... 4.338
Radial Grid Type                 RadialGrid  ... OptM3 with GC (2021)
Angular Grid (max. ang.)         AngularGrid ... 3 (Lebedev-194)
Angular grid pruning method      GridPruning ... 4 (adaptive)
Weight generation scheme         WeightScheme... mBecke (2022)
Basis function cutoff            BFCut       ... 1.0000e-11
Integration weight cutoff        WCut        ... 1.0000e-14
Partially contracted basis set               ... on
Rotationally invariant grid construction     ... off
Angular grids for H and He will be reduced by one unit
Core-polarized basis detected: some atoms will have their core
                               angular grid increased.

Total number of grid points                  ...    78062
Total number of batches                      ...      617
Average number of points per batch           ...      126
Average number of grid points per atom       ...     3253
UseSFitting                                  ... on

GRIDX 3
-------
General Integration Accuracy     IntAcc      ... 4.871
Radial Grid Type                 RadialGrid  ... OptM3 with GC (2021)
Angular Grid (max. ang.)         AngularGrid ... 4 (Lebedev-302)
Angular grid pruning method      GridPruning ... 4 (adaptive)
Weight generation scheme         WeightScheme... mBecke (2022)
Basis function cutoff            BFCut       ... 1.0000e-11
Integration weight cutoff        WCut        ... 1.0000e-14
Partially contracted basis set               ... on
Rotationally invariant grid construction     ... off
Angular grids for H and He will be reduced by one unit
Core-polarized basis detected: some atoms will have their core
                               angular grid increased.

Total number of grid points                  ...   144430
Total number of batches                      ...     1140
Average number of points per batch           ...      126
Average number of grid points per atom       ...     6018
UseSFitting                                  ... on
Initializing property integral containers    ... done (  0.0 sec)

SHARK setup successfully completed in   4.1 seconds

Maximum memory used throughout the entire STARTUP-calculation: 85.7 MB


           ************************************************************
           *        Program running with 16 parallel MPI-processes    *
           *              working on a common directory               *
           ************************************************************
-------------------------------------------------------------------------------
                                 ORCA GUESS
                   Start orbitals & Density for SCF / CASSCF
-------------------------------------------------------------------------------

------------
SCF SETTINGS
------------
Hamiltonian:
 Density Functional     Method          .... DFT(GTOs)
 Exchange Functional    Exchange        .... PBE
   PBE kappa parameter   XKappa         ....  0.804000
   PBE mue parameter    XMuePBE         ....  0.219520
 Correlation Functional Correlation     .... PBE
   PBE beta parameter  CBetaPBE         ....  0.066725
 LDA part of GGA corr.  LDAOpt          .... PW91-LDA
 Gradients option       PostSCFGGA      .... off
 Hybrid DFT is turned on
   Fraction HF Exchange ScalHFX         ....  0.250000
   Scaling of DF-GGA-X  ScalDFX         ....  0.750000
   Scaling of DF-GGA-C  ScalDFC         ....  1.000000
   Scaling of DF-LDA-C  ScalLDAC        ....  1.000000
   Perturbative correction              ....  0.000000
   NL short-range parameter             ....  6.900000
 RI-approximation to the Coulomb term is turned on
   Number of AuxJ basis functions       .... 912
   RIJ-COSX (HFX calculated with COS-X)).... on


General Settings:
 Integral files         IntName         .... SIDVIL-S6
 Hartree-Fock type      HFTyp           .... UHF
 Total Charge           Charge          ....    0
 Multiplicity           Mult            ....    6
 Number of Electrons    NEL             ....  145
 Basis Dimension        Dim             ....  558
 Nuclear Repulsion      ENuc            ....   1750.9016874334 Eh

Convergence Acceleration:
 AO-DIIS                CNVDIIS         .... on
   Start iteration      DIISMaxIt       ....     0
   Startup error        DIISStart       ....  0.200000
   # of expansion vecs  DIISMaxEq       ....     5
   Bias factor          DIISBfac        ....   1.050
   Max. coefficient     DIISMaxC        ....  10.000
 MO-DIIS                CNVKDIIS        .... off
 Trust-Rad. Augm. Hess. CNVTRAH         .... auto
   Auto Start mean grad. ratio tolernc. ....  1.125000
   Auto Start start iteration           ....    50
   Auto Start num. interpolation iter.  ....    10
   Max. Number of Micro iterations      ....    24
   Max. Number of Macro iterations      .... Maxiter - #DIIS iter
   Number of Davidson start vectors     ....     2
   Converg. threshold    (grad. norm)   ....   1.000e-05
   Grad. Scal. Fac. for Micro threshold ....   0.100
   Minimum threshold for Micro iter.    ....   1.000e-02
   NR start threshold (gradient norm)   ....   1.000e-04
   Initial trust radius                 ....   0.400
   Minimum AH scaling param. (alpha)    ....   1.000
   Maximum AH scaling param. (alpha)    .... 1000.000
   Quad. conv. algorithm                .... NR
   White noise on init. David. guess    .... on
   Maximum white noise                  ....   0.010
   Pseudo random numbers                .... off
   Inactive MOs                         .... canonical
   Orbital update algorithm             .... Taylor
   Preconditioner                       .... Diag
   Full preconditioner red. dimension   ....   250
 SOSCF                  CNVSOSCF        .... on
   Start iteration      SOSCFMaxIt      ....   150
   Startup grad/error   SOSCFStart      ....  0.001000
   Hessian update       SOSCFHessUp     .... L-BFGS
 Level Shifting         CNVShift        .... on
   Level shift para.    LevelShift      ....    0.2500
   Turn off err/grad.   ShiftErr        ....    0.0000
 Zerner damping         CNVZerner       .... off
 Static damping         CNVDamp         .... on
   Fraction old density DampFac         ....    0.8500
   Max. Damping (<1)    DampMax         ....    0.9800
   Min. Damping (>=0)   DampMin         ....    0.0000
   Turn off err/grad.   DampErr         ....    0.0300

SCF Procedure:
 Maximum # iterations   MaxIter         ....   125
 SCF integral mode      SCFMode         .... Direct
   Integral package                     .... SHARK and LIBINT hybrid scheme
 Reset frequency        DirectResetFreq ....    20
 Integral Threshold     Thresh          ....  2.500e-11 Eh
 Primitive CutOff       TCut            ....  2.500e-12 Eh

Convergence Tolerance:
 Convergence Check Mode ConvCheckMode   .... Total+1el-Energy
 Convergence forced     ConvForced      .... 0
 Energy Change          TolE            ....  1.000e-08 Eh
 1-El. energy change                    ....  1.000e-05 Eh
 Orbital Gradient       TolG            ....  1.000e-05
 Orbital Rotation angle TolX            ....  1.000e-05
 DIIS Error             TolErr          ....  5.000e-07

------------------------------
INITIAL GUESS: MODEL POTENTIAL
------------------------------
Loading Hartree-Fock densities                     ... done
Calculating cut-offs                               ... done
Initializing the effective Hamiltonian             ... done
Setting up the integral package (SHARK)            ... done
done (   0.1 sec)
Making the grid                                    ... done (   0.2 sec)
Mapping shells                                     ... done
Starting the XC term evaluation                    ... done (   0.1 sec)
  promolecular density results
     # of electrons  =    144.997277208
     EX              =   -165.119099858
     EC              =     -5.238969693
     EX+EC           =   -170.358069551
Transforming the Hamiltonian                       ... done (   0.1 sec)
done (   0.1 sec)
Back transforming the eigenvectors                 ... done (   0.0 sec)
done
                      ------------------
                      INITIAL GUESS DONE (   0.6 sec)
                      ------------------
             **** ENERGY FILE WAS UPDATED (SIDVIL-S6.en.tmp) ****
Finished Guess after   0.8 sec
Maximum memory used throughout the entire GUESS-calculation: 37.4 MB


           ************************************************************
           *        Program running with 16 parallel MPI-processes    *
           *              working on a common directory               *
           ************************************************************

-------------------------------------------------------------------------------------------
                                      ORCA LEAN-SCF
                              memory conserving SCF solver
-------------------------------------------------------------------------------------------

----------------------------------------D-I-I-S--------------------------------------------
Iteration    Energy (Eh)           Delta-E    RMSDP     MaxDP     DIISErr   Damp  Time(sec)
-------------------------------------------------------------------------------------------
               ***  Starting incremental Fock matrix formation  ***
    1    -2226.3377059692866169     0.00e+00  4.15e-04  4.42e-02  2.11e-01  0.850   7.1
Warning: op=0 Small HOMO/LUMO gap (   0.100) - skipping pre-diagonalization
         Will do a full diagonalization
    2    -2226.6002665066635018    -2.63e-01  3.40e-04  2.76e-02  9.57e-02  0.850   4.1
                               ***Turning on AO-DIIS***
    3    -2226.6987595718210287    -9.85e-02  1.79e-04  1.33e-02  6.10e-02  0.850   3.9
    4    -2226.7729829247314228    -7.42e-02  1.02e-04  6.41e-03  4.37e-02  0.850   3.4
    5    -2226.8288130686532895    -5.58e-02  7.25e-05  5.48e-03  4.56e-02  0.850   3.3
    6    -2226.8735780598353813    -4.48e-02  6.49e-05  4.03e-03  4.94e-02  0.850   3.2
    7    -2226.9122001667979021    -3.86e-02  7.91e-05  9.50e-03  4.53e-02  0.850   3.1
    8    -2226.9456317447179572    -3.34e-02  5.67e-05  5.32e-03  3.00e-02  0.850   3.1
    9    -2226.9734610567911659    -2.78e-02  2.95e-04  1.91e-02  2.43e-02  0.000   2.9
   10    -2227.1267431274518458    -1.53e-01  7.40e-05  1.02e-02  1.75e-02  0.000   3.4
   11    -2227.1277031255986003    -9.60e-04  2.69e-05  2.80e-03  8.34e-03  0.000   3.0
                              *** Initializing SOSCF ***
---------------------------------------S-O-S-C-F--------------------------------------
Iteration    Energy (Eh)           Delta-E    RMSDP     MaxDP     MaxGrad    Time(sec)
--------------------------------------------------------------------------------------
   12    -2227.1281220861765178    -4.19e-04  1.11e-05  8.27e-04  9.97e-04     3.2
               *** Restarting incremental Fock matrix formation ***
   13    -2227.1281685891299276    -4.65e-05  1.66e-05  1.76e-03  9.28e-04     5.9
   14    -2227.1281758876566528    -7.30e-06  1.15e-05  9.20e-04  1.06e-03     3.9
   15    -2227.1281994947835301    -2.36e-05  4.76e-06  4.30e-04  3.29e-04     3.8
   16    -2227.1281990072457120     4.88e-07  3.42e-06  5.55e-04  3.83e-04     3.6
   17    -2227.1282015822457652    -2.58e-06  2.54e-06  2.24e-04  1.18e-04     3.6
   18    -2227.1282018992028497    -3.17e-07  1.03e-06  6.37e-05  1.44e-04     3.5
   19    -2227.1282021384431573    -2.39e-07  9.84e-07  7.92e-05  9.82e-05     3.2
   20    -2227.1282022075201894    -6.91e-08  4.81e-07  3.40e-05  5.08e-05     3.9
   21    -2227.1282022400268943    -3.25e-08  3.02e-07  2.27e-05  3.55e-05     3.4
   22    -2227.1282022413993218    -1.37e-09  1.83e-07  1.31e-05  2.82e-05     3.2
                 **** Energy Check signals convergence ****

               *****************************************************
               *                     SUCCESS                       *
               *           SCF CONVERGED AFTER  22 CYCLES          *
               *****************************************************

 done (    8.491 sec)
Old exchange energy                            :    -41.710133438 Eh
New exchange energy                            :    -41.710133662 Eh
Exchange energy change after final integration :     -0.000000224 Eh
Total energy after final integration           :  -2227.128202466 Eh
             **** ENERGY FILE WAS UPDATED (SIDVIL-S6.en.tmp) ****

----------------
TOTAL SCF ENERGY
----------------

Total Energy       :      -2227.12820246584579 Eh          -60603.23940 eV

Components:
Nuclear Repulsion  :       1750.90168743339018 Eh           47644.45711 eV
Electronic Energy  :      -3978.02988967478950 Eh         -108247.69650 eV
One Electron Energy:      -6554.31759138490088 Eh         -178352.04890 eV
Two Electron Energy:       2576.28770171011138 Eh           70104.35240 eV

Virial components:
Potential Energy   :      -4449.12486723719212 Eh         -121066.84256 eV
Kinetic Energy     :       2221.99666477134633 Eh           60463.60316 eV
Virial Ratio       :          2.00230942637127

DFT components:
N(Alpha)           :       74.999999244330 electrons
N(Beta)            :       69.999999283613 electrons
N(Total)           :      144.999998527943 electrons
E(X)               :     -125.131647993533 Eh       
E(C)               :       -5.240394012749 Eh       
E(XC)              :     -130.372042006282 Eh       

---------------
SCF CONVERGENCE
---------------

  Last Energy change         ...    1.3724e-09  Tolerance :   1.0000e-08
  Last MAX-Density change    ...    1.3119e-05  Tolerance :   1.0000e-07
  Last RMS-Density change    ...    1.8294e-07  Tolerance :   5.0000e-09
  Last DIIS Error            ...    9.9731e-04  Tolerance :   5.0000e-07
  Last Orbital Gradient      ...    2.8212e-05  Tolerance :   1.0000e-05
  Last Orbital Rotation      ...    3.5519e-05  Tolerance :   1.0000e-05


----------------------
UHF SPIN CONTAMINATION
----------------------

Warning: in a DFT calculation there is little theoretical justification to 
         calculate <S**2> as in Hartree-Fock theory. We will do it anyways
         but you should keep in mind that the values have only limited relevance

Expectation value of <S**2>     :     8.758020
Ideal value S*(S+1) for S=2.5   :     8.750000
Deviation                       :     0.008020

----------------
ORBITAL ENERGIES
----------------
                 SPIN UP ORBITALS
  NO   OCC          E(Eh)            E(eV) 
   0   1.0000    -256.522664     -6980.3366 
   1   1.0000     -30.345235      -825.7358 
   2   1.0000     -26.165057      -711.9874 
   3   1.0000     -26.162669      -711.9224 
   4   1.0000     -26.160459      -711.8623 
   5   1.0000     -19.288034      -524.8541 
   6   1.0000     -19.286982      -524.8255 
   7   1.0000     -19.280242      -524.6421 
   8   1.0000     -19.279927      -524.6335 
   9   1.0000     -19.279236      -524.6147 
  10   1.0000     -19.277993      -524.5809 
  11   1.0000     -19.233832      -523.3792 
  12   1.0000     -19.233260      -523.3636 
  13   1.0000     -19.191496      -522.2272 
  14   1.0000     -19.189506      -522.1730 
  15   1.0000     -14.694488      -399.8573 
  16   1.0000     -10.355617      -281.7907 
  17   1.0000     -10.353248      -281.7262 
  18   1.0000     -10.312006      -280.6039 
  19   1.0000     -10.310633      -280.5666 
  20   1.0000      -3.771733      -102.6341 
  21   1.0000      -2.536342       -69.0174 
  22   1.0000      -2.532374       -68.9094 
  23   1.0000      -2.529144       -68.8215 
  24   1.0000      -1.345296       -36.6074 
  25   1.0000      -1.151919       -31.3453 
  26   1.0000      -1.146976       -31.2108 
  27   1.0000      -1.121953       -30.5299 
  28   1.0000      -1.119923       -30.4747 
  29   1.0000      -1.114249       -30.3202 
  30   1.0000      -1.110017       -30.2051 
  31   1.0000      -1.098704       -29.8972 
  32   1.0000      -1.036514       -28.2050 
  33   1.0000      -1.035207       -28.1694 
  34   1.0000      -0.821914       -22.3654 
  35   1.0000      -0.731977       -19.9181 
  36   1.0000      -0.693058       -18.8591 
  37   1.0000      -0.637751       -17.3541 
  38   1.0000      -0.635949       -17.3051 
  39   1.0000      -0.622513       -16.9394 
  40   1.0000      -0.618206       -16.8222 
  41   1.0000      -0.614496       -16.7213 
  42   1.0000      -0.594010       -16.1638 
  43   1.0000      -0.588639       -16.0177 
  44   1.0000      -0.587320       -15.9818 
  45   1.0000      -0.568800       -15.4778 
  46   1.0000      -0.567505       -15.4426 
  47   1.0000      -0.543479       -14.7888 
  48   1.0000      -0.540221       -14.7002 
  49   1.0000      -0.532472       -14.4893 
  50   1.0000      -0.525929       -14.3113 
  51   1.0000      -0.516627       -14.0581 
  52   1.0000      -0.496978       -13.5235 
  53   1.0000      -0.492893       -13.4123 
  54   1.0000      -0.482160       -13.1202 
  55   1.0000      -0.473496       -12.8845 
  56   1.0000      -0.467839       -12.7305 
  57   1.0000      -0.461670       -12.5627 
  58   1.0000      -0.456628       -12.4255 
  59   1.0000      -0.434978       -11.8363 
  60   1.0000      -0.420289       -11.4367 
  61   1.0000      -0.418751       -11.3948 
  62   1.0000      -0.404571       -11.0089 
  63   1.0000      -0.386223       -10.5097 
  64   1.0000      -0.384792       -10.4707 
  65   1.0000      -0.375240       -10.2108 
  66   1.0000      -0.374743       -10.1973 
  67   1.0000      -0.352836        -9.6011 
  68   1.0000      -0.340883        -9.2759 
  69   1.0000      -0.336106        -9.1459 
  70   1.0000      -0.329940        -8.9781 
  71   1.0000      -0.328725        -8.9451 
  72   1.0000      -0.326096        -8.8735 
  73   1.0000      -0.292594        -7.9619 
  74   1.0000      -0.289420        -7.8755 
  75   0.0000      -0.072345        -1.9686 
  76   0.0000      -0.016158        -0.4397 
  77   0.0000      -0.000105        -0.0029 
  78   0.0000       0.008017         0.2182 
  79   0.0000       0.015033         0.4091 
  80   0.0000       0.044224         1.2034 
  81   0.0000       0.057245         1.5577 
  82   0.0000       0.074350         2.0232 
  83   0.0000       0.077528         2.1097 
  84   0.0000       0.079568         2.1651 
  85   0.0000       0.086490         2.3535 

                 SPIN DOWN ORBITALS
  NO   OCC          E(Eh)            E(eV) 
   0   1.0000    -256.521052     -6980.2927 
   1   1.0000     -30.247038      -823.0638 
   2   1.0000     -26.081456      -709.7125 
   3   1.0000     -26.080192      -709.6781 
   4   1.0000     -26.078736      -709.6385 
   5   1.0000     -19.285462      -524.7841 
   6   1.0000     -19.284993      -524.7713 
   7   1.0000     -19.277640      -524.5712 
   8   1.0000     -19.277152      -524.5580 
   9   1.0000     -19.276712      -524.5460 
  10   1.0000     -19.276677      -524.5450 
  11   1.0000     -19.228567      -523.2359 
  12   1.0000     -19.227189      -523.1984 
  13   1.0000     -19.190730      -522.2063 
  14   1.0000     -19.188535      -522.1466 
  15   1.0000     -14.694703      -399.8632 
  16   1.0000     -10.355745      -281.7942 
  17   1.0000     -10.353412      -281.7307 
  18   1.0000     -10.311918      -280.6015 
  19   1.0000     -10.310529      -280.5638 
  20   1.0000      -3.538161       -96.2783 
  21   1.0000      -2.283639       -62.1410 
  22   1.0000      -2.282383       -62.1068 
  23   1.0000      -2.279348       -62.0242 
  24   1.0000      -1.342833       -36.5404 
  25   1.0000      -1.147136       -31.2152 
  26   1.0000      -1.142973       -31.1019 
  27   1.0000      -1.117405       -30.4061 
  28   1.0000      -1.114400       -30.3244 
  29   1.0000      -1.110909       -30.2294 
  30   1.0000      -1.104525       -30.0557 
  31   1.0000      -1.092031       -29.7157 
  32   1.0000      -1.028571       -27.9888 
  33   1.0000      -1.026403       -27.9298 
  34   1.0000      -0.820566       -22.3287 
  35   1.0000      -0.729852       -19.8603 
  36   1.0000      -0.688162       -18.7258 
  37   1.0000      -0.629993       -17.1430 
  38   1.0000      -0.620188       -16.8762 
  39   1.0000      -0.615860       -16.7584 
  40   1.0000      -0.613682       -16.6991 
  41   1.0000      -0.606051       -16.4915 
  42   1.0000      -0.584411       -15.9026 
  43   1.0000      -0.580995       -15.8097 
  44   1.0000      -0.570408       -15.5216 
  45   1.0000      -0.565397       -15.3852 
  46   1.0000      -0.562098       -15.2955 
  47   1.0000      -0.507115       -13.7993 
  48   1.0000      -0.499320       -13.5872 
  49   1.0000      -0.495975       -13.4962 
  50   1.0000      -0.485076       -13.1996 
  51   1.0000      -0.470585       -12.8053 
  52   1.0000      -0.461807       -12.5664 
  53   1.0000      -0.450869       -12.2688 
  54   1.0000      -0.446793       -12.1578 
  55   1.0000      -0.426385       -11.6025 
  56   1.0000      -0.422598       -11.4995 
  57   1.0000      -0.413306       -11.2466 
  58   1.0000      -0.405639       -11.0380 
  59   1.0000      -0.381843       -10.3905 
  60   1.0000      -0.378023       -10.2865 
  61   1.0000      -0.372710       -10.1419 
  62   1.0000      -0.352215        -9.5842 
  63   1.0000      -0.349645        -9.5143 
  64   1.0000      -0.347774        -9.4634 
  65   1.0000      -0.340609        -9.2684 
  66   1.0000      -0.333850        -9.0845 
  67   1.0000      -0.320098        -8.7103 
  68   1.0000      -0.300960        -8.1895 
  69   1.0000      -0.287295        -7.8177 
  70   0.0000      -0.139593        -3.7985 
  71   0.0000      -0.137830        -3.7505 
  72   0.0000      -0.128453        -3.4954 
  73   0.0000      -0.125819        -3.4237 
  74   0.0000      -0.090746        -2.4693 
  75   0.0000      -0.066466        -1.8086 
  76   0.0000      -0.013396        -0.3645 
  77   0.0000       0.001763         0.0480 
  78   0.0000       0.009922         0.2700 
  79   0.0000       0.020705         0.5634 
  80   0.0000       0.044872         1.2210 
*Only the first 10 virtual orbitals were printed.

                    ********************************
                    * MULLIKEN POPULATION ANALYSIS *
                    ********************************

--------------------------------------------
MULLIKEN ATOMIC CHARGES AND SPIN POPULATIONS
--------------------------------------------
   0 Fe:    0.764429    4.297725
   1 O :   -0.408226    0.147235
   2 O :   -0.310034    0.026205
   3 O :   -0.217830    0.042323
   4 C :    0.223827   -0.002985
   5 C :   -0.056142    0.007612
   6 H :    0.129012    0.000244
   7 H :    0.144341    0.002235
   8 O :   -0.344627    0.092088
   9 O :   -0.259537    0.026577
  10 N :    0.604464   -0.006996
  11 O :   -0.552421    0.039697
  12 H :    0.367765    0.001275
  13 H :    0.376170   -0.000005
  14 O :   -0.388571    0.174177
  15 O :   -0.309590    0.033556
  16 C :    0.261139   -0.004367
  17 C :   -0.070790    0.008477
  18 H :    0.142914    0.002420
  19 H :    0.127020    0.000212
  20 O :   -0.371087    0.081787
  21 O :   -0.595996    0.030766
  22 H :    0.371796    0.000051
  23 H :    0.371971   -0.000310
Sum of atomic charges         :   -0.0000000
Sum of atomic spin populations:    5.0000000

-----------------------------------------------------
MULLIKEN REDUCED ORBITAL CHARGES AND SPIN POPULATIONS
-----------------------------------------------------
CHARGE
  0 Fes       :     6.532434  s :     6.532434
      pz      :     4.263277  p :    12.667418
      px      :     4.213342
      py      :     4.190799
      dz2     :     1.198142  d :     6.034032
      dxz     :     1.212206
      dyz     :     1.219042
      dx2y2   :     1.167912
      dxy     :     1.236730
      f0      :     0.000272  f :     0.001686
      f+1     :     0.000220
      f-1     :     0.000271
      f+2     :     0.000069
      f-2     :     0.000269
      f+3     :     0.000290
      f-3     :     0.000295

  1 O s       :     3.810024  s :     3.810024
      pz      :     1.387681  p :     4.570890
      px      :     1.612789
      py      :     1.570420
      dz2     :     0.009979  d :     0.025735
      dxz     :     0.005519
      dyz     :     0.005896
      dx2y2   :     0.001499
      dxy     :     0.002841
      f0      :     0.000394  f :     0.001577
      f+1     :     0.000276
      f-1     :     0.000425
      f+2     :     0.000159
      f-2     :     0.000186
      f+3     :     0.000078
      f-3     :     0.000058

  2 O s       :     3.796726  s :     3.796726
      pz      :     1.725291  p :     4.479447
      px      :     1.392034
      py      :     1.362122
      dz2     :     0.003628  d :     0.031937
      dxz     :     0.003191
      dyz     :     0.006270
      dx2y2   :     0.010657
      dxy     :     0.008192
      f0      :     0.000215  f :     0.001924
      f+1     :     0.000148
      f-1     :     0.000300
      f+2     :     0.000170
      f-2     :     0.000304
      f+3     :     0.000273
      f-3     :     0.000514

  3 O s       :     3.714770  s :     3.714770
      pz      :     1.518843  p :     4.461799
      px      :     1.533392
      py      :     1.409563
      dz2     :     0.005904  d :     0.039254
      dxz     :     0.007223
      dyz     :     0.008965
      dx2y2   :     0.009764
      dxy     :     0.007398
      f0      :     0.000123  f :     0.002007
      f+1     :     0.000170
      f-1     :     0.000226
      f+2     :     0.000308
      f-2     :     0.000345
      f+3     :     0.000439
      f-3     :     0.000397

  4 C s       :     3.071542  s :     3.071542
      pz      :     0.797653  p :     2.390508
      px      :     0.796089
      py      :     0.796766
      dz2     :     0.055072  d :     0.288832
      dxz     :     0.065914
      dyz     :     0.084377
      dx2y2   :     0.050037
      dxy     :     0.033432
      f0      :     0.005083  f :     0.025291
      f+1     :     0.003998
      f-1     :     0.004826
      f+2     :     0.002352
      f-2     :     0.003591
      f+3     :     0.002003
      f-3     :     0.003438

  5 C s       :     3.157528  s :     3.157528
      pz      :     1.000937  p :     2.770560
      px      :     1.027612
      py      :     0.742010
      dz2     :     0.020842  d :     0.117887
      dxz     :     0.021740
      dyz     :     0.021256
      dx2y2   :     0.025755
      dxy     :     0.028293
      f0      :     0.000910  f :     0.010167
      f+1     :     0.000871
      f-1     :     0.001961
      f+2     :     0.001481
      f-2     :     0.001784
      f+3     :     0.001108
      f-3     :     0.002054

  6 H s       :     0.849435  s :     0.849435
      pz      :     0.005673  p :     0.021553
      px      :     0.009391
      py      :     0.006490

  7 H s       :     0.834295  s :     0.834295
      pz      :     0.010189  p :     0.021364
      px      :     0.008193
      py      :     0.002982

  8 O s       :     3.844206  s :     3.844206
      pz      :     1.409928  p :     4.457733
      px      :     1.584134
      py      :     1.463672
      dz2     :     0.004745  d :     0.039846
      dxz     :     0.008203
      dyz     :     0.012321
      dx2y2   :     0.007260
      dxy     :     0.007317
      f0      :     0.000289  f :     0.002842
      f+1     :     0.000281
      f-1     :     0.000500
      f+2     :     0.000448
      f-2     :     0.000779
      f+3     :     0.000280
      f-3     :     0.000265

  9 O s       :     3.884422  s :     3.884422
      pz      :     1.146993  p :     4.323974
      px      :     1.541014
      py      :     1.635967
      dz2     :     0.021304  d :     0.047312
      dxz     :     0.013336
      dyz     :     0.011696
      dx2y2   :     0.000476
      dxy     :     0.000500
      f0      :     0.001587  f :     0.003829
      f+1     :     0.001095
      f-1     :     0.000973
      f+2     :     0.000082
      f-2     :     0.000077
      f+3     :     0.000007
      f-3     :     0.000008

 10 N s       :     3.198804  s :     3.198804
      pz      :     0.821521  p :     2.865370
      px      :     1.039531
      py      :     1.004318
      dz2     :     0.067944  d :     0.312752
      dxz     :     0.080745
      dyz     :     0.088176
      dx2y2   :     0.049117
      dxy     :     0.026770
      f0      :     0.002356  f :     0.018610
      f+1     :     0.003981
      f-1     :     0.005189
      f+2     :     0.002381
      f-2     :     0.001815
      f+3     :     0.001381
      f-3     :     0.001506

 11 O s       :     3.753135  s :     3.753135
      pz      :     1.589265  p :     4.776933
      px      :     1.588010
      py      :     1.599657
      dz2     :     0.007609  d :     0.021132
      dxz     :     0.002544
      dyz     :     0.003134
      dx2y2   :     0.000862
      dxy     :     0.006983
      f0      :     0.000053  f :     0.001220
      f+1     :     0.000104
      f-1     :     0.000506
      f+2     :     0.000082
      f-2     :     0.000098
      f+3     :     0.000124
      f-3     :     0.000253

 12 H s       :     0.586592  s :     0.586592
      pz      :     0.011969  p :     0.045642
      px      :     0.016885
      py      :     0.016788

 13 H s       :     0.577823  s :     0.577823
      pz      :     0.019848  p :     0.046007
      px      :     0.011518
      py      :     0.014641

 14 O s       :     3.818154  s :     3.818154
      pz      :     1.380196  p :     4.542525
      px      :     1.581508
      py      :     1.580821
      dz2     :     0.010123  d :     0.026255
      dxz     :     0.005848
      dyz     :     0.005557
      dx2y2   :     0.001618
      dxy     :     0.003110
      f0      :     0.000389  f :     0.001637
      f+1     :     0.000383
      f-1     :     0.000322
      f+2     :     0.000162
      f-2     :     0.000209
      f+3     :     0.000086
      f-3     :     0.000085

 15 O s       :     3.797584  s :     3.797584
      pz      :     1.730351  p :     4.478112
      px      :     1.369719
      py      :     1.378042
      dz2     :     0.003528  d :     0.031965
      dxz     :     0.005211
      dyz     :     0.004167
      dx2y2   :     0.011263
      dxy     :     0.007796
      f0      :     0.000220  f :     0.001929
      f+1     :     0.000246
      f-1     :     0.000194
      f+2     :     0.000129
      f-2     :     0.000335
      f+3     :     0.000457
      f-3     :     0.000349

 16 C s       :     3.060620  s :     3.060620
      pz      :     0.792864  p :     2.362117
      px      :     0.780630
      py      :     0.788622
      dz2     :     0.054512  d :     0.290654
      dxz     :     0.079846
      dyz     :     0.073258
      dx2y2   :     0.054016
      dxy     :     0.029023
      f0      :     0.005183  f :     0.025470
      f+1     :     0.004550
      f-1     :     0.004112
      f+2     :     0.002049
      f-2     :     0.004062
      f+3     :     0.003103
      f-3     :     0.002411

 17 C s       :     3.170116  s :     3.170116
      pz      :     1.006506  p :     2.772151
      px      :     0.797956
      py      :     0.967690
      dz2     :     0.019514  d :     0.118346
      dxz     :     0.021513
      dyz     :     0.023905
      dx2y2   :     0.028182
      dxy     :     0.025233
      f0      :     0.000988  f :     0.010177
      f+1     :     0.001665
      f-1     :     0.001078
      f+2     :     0.001186
      f-2     :     0.002227
      f+3     :     0.001940
      f-3     :     0.001094

 18 H s       :     0.835588  s :     0.835588
      pz      :     0.009360  p :     0.021497
      px      :     0.003778
      py      :     0.008360

 19 H s       :     0.851418  s :     0.851418
      pz      :     0.006442  p :     0.021562
      px      :     0.007916
      py      :     0.007204

 20 O s       :     3.862296  s :     3.862296
      pz      :     1.550303  p :     4.466792
      px      :     1.461952
      py      :     1.454537
      dz2     :     0.004691  d :     0.039088
      dxz     :     0.006738
      dyz     :     0.008614
      dx2y2   :     0.008484
      dxy     :     0.010561
      f0      :     0.000341  f :     0.002910
      f+1     :     0.000206
      f-1     :     0.000241
      f+2     :     0.000297
      f-2     :     0.000837
      f+3     :     0.000492
      f-3     :     0.000496

 21 O s       :     3.766545  s :     3.766545
      pz      :     1.794941  p :     4.807190
      px      :     1.528427
      py      :     1.483823
      dz2     :     0.001584  d :     0.020993
      dxz     :     0.005880
      dyz     :     0.006347
      dx2y2   :     0.006576
      dxy     :     0.000605
      f0      :     0.000310  f :     0.001268
      f+1     :     0.000054
      f-1     :     0.000051
      f+2     :     0.000353
      f-2     :     0.000114
      f+3     :     0.000131
      f-3     :     0.000256

 22 H s       :     0.583227  s :     0.583227
      pz      :     0.015045  p :     0.044976
      px      :     0.018277
      py      :     0.011654

 23 H s       :     0.583042  s :     0.583042
      pz      :     0.015151  p :     0.044987
      px      :     0.011295
      py      :     0.018541


SPIN
  0 Fes       :     0.053504  s :     0.053504
      pz      :     0.007502  p :     0.034136
      px      :     0.012804
      py      :     0.013830
      dz2     :     0.852194  d :     4.210034
      dxz     :     0.842936
      dyz     :     0.819156
      dx2y2   :     0.877790
      dxy     :     0.817958
      f0      :     0.000014  f :     0.000051
      f+1     :     0.000007
      f-1     :     0.000012
      f+2     :     0.000004
      f-2     :     0.000004
[...]
     65      -0.000045   0.000010   0.004956  -0.035532   0.003685  -0.000132
     66       0.000331  -0.000386   0.081770  -0.589282  -0.582159   0.022275
     67      -0.000094   0.000436  -0.040822   0.293328   0.258819  -0.009954
     68      -0.000398  -0.000402  -0.036088   0.259841   0.280678  -0.010880
     69      -0.000213  -0.000156  -0.019415   0.139582  -0.112695   0.004468
     70       0.000571   0.000078   0.083816  -0.603815   0.617300  -0.023870
     71      -0.000093   0.000397  -0.042558   0.306228  -0.339292   0.012944


-----------
IR SPECTRUM
-----------

 Mode   freq       eps      Int      T**2         TX        TY        TZ
       cm**-1   L/(mol*cm) km/mol    a.u.
----------------------------------------------------------------------------
  6:     44.10   0.000377    1.91  0.002668  ( 0.020590 -0.044078  0.017353)
  7:     51.49   0.003068   15.51  0.018598  ( 0.125726  0.015622 -0.050463)
  8:     59.26   0.000682    3.45  0.003591  (-0.028541 -0.048972 -0.019441)
  9:     74.56   0.000691    3.49  0.002891  (-0.010806 -0.048008 -0.021657)
 10:     78.14   0.000835    4.22  0.003335  ( 0.008392 -0.039975 -0.040830)
 11:     95.09   0.000943    4.77  0.003096  ( 0.000624  0.054975 -0.008567)
 12:    103.11   0.002559   12.93  0.007745  ( 0.040308 -0.069829 -0.035279)
 13:    134.92   0.001636    8.27  0.003783  (-0.033773  0.044891  0.025047)
 14:    145.43   0.000640    3.24  0.001374  (-0.024196 -0.016184  0.022955)
 15:    155.60   0.001177    5.95  0.002361  ( 0.048547 -0.000876 -0.001928)
 16:    169.67   0.003447   17.42  0.006340  (-0.049579 -0.051638 -0.034866)
 17:    178.19   0.000894    4.52  0.001566  (-0.035668 -0.012464  0.011766)
 18:    182.39   0.000853    4.31  0.001459  (-0.026700 -0.024224  0.012634)
 19:    188.79   0.000461    2.33  0.000762  (-0.000313  0.027490 -0.002464)
 20:    208.14   0.002312   11.68  0.003466  (-0.028840 -0.049041 -0.015130)
 21:    216.27   0.002832   14.31  0.004087  ( 0.038694  0.046389  0.020915)
 22:    223.86   0.004720   23.85  0.006579  (-0.042102  0.068939 -0.007350)
 23:    248.31   0.000942    4.76  0.001184  (-0.031951 -0.009364  0.008672)
 24:    265.62   0.010628   53.71  0.012486  (-0.078720 -0.079249  0.002909)
 25:    275.43   0.005166   26.11  0.005853  (-0.028029 -0.011828  0.070198)
 26:    325.28   0.001077    5.44  0.001033  ( 0.025099 -0.009779 -0.017533)
 27:    333.07   0.012992   65.66  0.012172  ( 0.004783  0.004695  0.110125)
 28:    407.46   0.015063   76.12  0.011537  (-0.088833  0.058339  0.015554)
 29:    423.30   0.005316   26.86  0.003919  (-0.009184  0.000261 -0.061923)
 30:    479.12   0.002065   10.44  0.001345  (-0.007922 -0.005190  0.035431)
 31:    512.45   0.068101  344.15  0.041471  (-0.126158 -0.159676  0.007652)
 32:    527.82   0.030332  153.29  0.017933  ( 0.064121  0.039639  0.110682)
 33:    537.72   0.009238   46.69  0.005361  (-0.003027 -0.055998  0.047081)
 34:    576.65   0.002332   11.79  0.001262  (-0.024261  0.025942  0.000811)
 35:    593.92   0.010116   51.12  0.005316  ( 0.014639  0.019098 -0.068822)
 36:    603.85   0.007815   39.49  0.004039  ( 0.015790  0.059076 -0.017305)
 37:    612.24   0.010851   54.84  0.005531  ( 0.061381 -0.035019 -0.023177)
 38:    722.42   0.000026    0.13  0.000011  (-0.001659 -0.001883 -0.002180)
 39:    724.43   0.011926   60.27  0.005138  (-0.044646  0.056064 -0.001088)
 40:    729.81   0.002289   11.57  0.000979  (-0.005007 -0.000084  0.030880)
 41:    792.66   0.012047   60.88  0.004743  ( 0.002771  0.000137 -0.068812)
 42:    847.51   0.002596   13.12  0.000956  ( 0.020949 -0.022646  0.002079)
 43:    934.27   0.030921  156.26  0.010328  ( 0.064027 -0.078884 -0.002449)
 44:    946.57   0.003085   15.59  0.001017  ( 0.007588 -0.009507  0.029478)
 45:   1014.30   0.000120    0.61  0.000037  (-0.001075  0.004891  0.003435)
 46:   1033.74   0.002761   13.95  0.000833  ( 0.011698  0.009351  0.024680)
 47:   1064.71   0.010421   52.66  0.003054  ( 0.008861  0.006050  0.054214)
 48:   1105.89   0.010203   51.56  0.002879  (-0.006853 -0.003673  0.053090)
 49:   1164.66   0.007750   39.17  0.002077  ( 0.028861 -0.035257 -0.000750)
 50:   1234.27   0.000260    1.32  0.000066  ( 0.003064 -0.007513 -0.000080)
 51:   1252.97   0.004741   23.96  0.001181  ( 0.019172  0.012994  0.025384)
 52:   1289.06   0.036146  182.67  0.008750  (-0.055235  0.075323  0.005096)
 53:   1322.63   0.112060  566.30  0.026440  (-0.016480 -0.007937 -0.161570)
 54:   1333.06   0.008331   42.10  0.001950  (-0.026747  0.035060  0.002375)
 55:   1335.36   0.047332  239.20  0.011061  (-0.078301 -0.069954 -0.006044)
 56:   1386.25   0.022121  111.79  0.004980  (-0.001243 -0.001719 -0.070535)
 57:   1461.95   0.003053   15.43  0.000652  (-0.016059  0.019804 -0.001235)
 58:   1485.67   0.000402    2.03  0.000085  ( 0.006356  0.004058  0.005257)
 59:   1631.94   0.019384   97.96  0.003707  (-0.054863 -0.011397 -0.023808)
 60:   1636.55   0.017810   90.00  0.003396  ( 0.027504  0.025896 -0.044374)
 61:   1712.40   0.157930  798.11  0.028781  ( 0.011539  0.003741 -0.169215)
 62:   1813.48   0.204952  1035.74  0.035268  ( 0.118314 -0.145836 -0.001339)
 63:   1824.19   0.025948  131.13  0.004439  ( 0.017736  0.003767  0.064110)
 64:   3055.23   0.002591   13.09  0.000265  ( 0.010467 -0.012443 -0.000516)
 65:   3056.90   0.002985   15.09  0.000305  ( 0.006846  0.005835  0.014961)
 66:   3113.44   0.002222   11.23  0.000223  ( 0.010317  0.004632 -0.009736)
 67:   3118.54   0.000886    4.48  0.000089  ( 0.000654 -0.008452  0.004098)
 68:   3800.09   0.012171   61.51  0.000999  ( 0.026420  0.010600  0.013751)
 69:   3803.34   0.008662   43.77  0.000711  (-0.016486 -0.013870  0.015701)
 70:   3893.91   0.017040   86.11  0.001366  (-0.022692  0.029016 -0.002963)
 71:   3894.41   0.021102  106.64  0.001691  ( 0.019687 -0.027920 -0.022886)

* The epsilon (eps) is given for a Dirac delta lineshape.
** The dipole moment derivative (T) already includes vibrational overlap.

The first frequency considered to be a vibration is 6
The total number of vibrations considered is 66


--------------------------
THERMOCHEMISTRY AT 298.15K
--------------------------

Temperature         ...   298.15 K
Pressure            ...     1.00 atm
Total Mass          ...   285.95 AMU
Quasi RRHO          ...     True
Cut-Off Frequency   ...     1.00 cm^-1

Throughout the following assumptions are being made:
  (1) The electronic state is orbitally nondegenerate
      but the spin degeneracy is treated
  (2) There are no thermally accessible electronically excited states
  (3) Hindered rotations indicated by low frequency modes are not
      treated as such but are treated as vibrations and this may
      cause some error
  (4) All equations used are the standard statistical mechanics
      equations for an ideal gas
  (5) All vibrations are strictly harmonic

freq.      44.10  E(vib)   ...       0.53 
freq.      51.49  E(vib)   ...       0.52 
freq.      59.26  E(vib)   ...       0.51 
freq.      74.56  E(vib)   ...       0.49 
freq.      78.14  E(vib)   ...       0.49 
freq.      95.09  E(vib)   ...       0.47 
freq.     103.11  E(vib)   ...       0.46 
freq.     134.92  E(vib)   ...       0.42 
freq.     145.43  E(vib)   ...       0.41 
freq.     155.60  E(vib)   ...       0.40 
freq.     169.67  E(vib)   ...       0.38 
freq.     178.19  E(vib)   ...       0.37 
freq.     182.39  E(vib)   ...       0.37 
freq.     188.79  E(vib)   ...       0.36 
freq.     208.14  E(vib)   ...       0.34 
freq.     216.27  E(vib)   ...       0.34 
freq.     223.86  E(vib)   ...       0.33 
freq.     248.31  E(vib)   ...       0.31 
freq.     265.62  E(vib)   ...       0.29 
freq.     275.43  E(vib)   ...       0.28 
freq.     325.28  E(vib)   ...       0.24 
freq.     333.07  E(vib)   ...       0.24 
freq.     407.46  E(vib)   ...       0.19 
freq.     423.30  E(vib)   ...       0.18 
freq.     479.12  E(vib)   ...       0.15 
freq.     512.45  E(vib)   ...       0.13 
freq.     527.82  E(vib)   ...       0.13 
freq.     537.72  E(vib)   ...       0.12 
freq.     576.65  E(vib)   ...       0.11 
freq.     593.92  E(vib)   ...       0.10 
freq.     603.85  E(vib)   ...       0.10 
freq.     612.24  E(vib)   ...       0.10 
freq.     722.42  E(vib)   ...       0.07 
freq.     724.43  E(vib)   ...       0.06 
freq.     729.81  E(vib)   ...       0.06 
freq.     792.66  E(vib)   ...       0.05 
freq.     847.51  E(vib)   ...       0.04 
freq.     934.27  E(vib)   ...       0.03 
freq.     946.57  E(vib)   ...       0.03 
freq.    1014.30  E(vib)   ...       0.02 
freq.    1033.74  E(vib)   ...       0.02 
freq.    1064.71  E(vib)   ...       0.02 
freq.    1105.89  E(vib)   ...       0.02 
freq.    1164.66  E(vib)   ...       0.01 
freq.    1234.27  E(vib)   ...       0.01 
freq.    1252.97  E(vib)   ...       0.01 
freq.    1289.06  E(vib)   ...       0.01 
freq.    1322.63  E(vib)   ...       0.01 
freq.    1333.06  E(vib)   ...       0.01 
freq.    1335.36  E(vib)   ...       0.01 
freq.    1386.25  E(vib)   ...       0.00 
freq.    1461.95  E(vib)   ...       0.00 
freq.    1485.67  E(vib)   ...       0.00 
freq.    1631.94  E(vib)   ...       0.00 
freq.    1636.55  E(vib)   ...       0.00 
freq.    1712.40  E(vib)   ...       0.00 
freq.    1813.48  E(vib)   ...       0.00 
freq.    1824.19  E(vib)   ...       0.00 
freq.    3055.23  E(vib)   ...       0.00 
freq.    3056.90  E(vib)   ...       0.00 
freq.    3113.44  E(vib)   ...       0.00 
freq.    3118.54  E(vib)   ...       0.00 
freq.    3800.09  E(vib)   ...       0.00 
freq.    3803.34  E(vib)   ...       0.00 
freq.    3893.91  E(vib)   ...       0.00 
freq.    3894.41  E(vib)   ...       0.00 

------------
INNER ENERGY
------------

The inner energy is: U= E(el) + E(ZPE) + E(vib) + E(rot) + E(trans)
    E(el)   - is the total energy from the electronic structure calculation
              = E(kin-el) + E(nuc-el) + E(el-el) + E(nuc-nuc)
    E(ZPE)  - the the zero temperature vibrational energy from the frequency calculation
    E(vib)  - the the finite temperature correction to E(ZPE) due to population
              of excited vibrational states
    E(rot)  - is the rotational thermal energy
    E(trans)- is the translational thermal energy

Summary of contributions to the inner energy U:
Electronic energy                ...  -2227.12899007 Eh
Zero point energy                ...      0.15620910 Eh      98.02 kcal/mol
Thermal vibrational correction   ...      0.01652100 Eh      10.37 kcal/mol
Thermal rotational correction    ...      0.00141627 Eh       0.89 kcal/mol
Thermal translational correction ...      0.00141627 Eh       0.89 kcal/mol
-----------------------------------------------------------------------
Total thermal energy                  -2226.95342743 Eh


Summary of corrections to the electronic energy:
(perhaps to be used in another calculation)
Total thermal correction                  0.01935355 Eh      12.14 kcal/mol
Non-thermal (ZPE) correction              0.15620910 Eh      98.02 kcal/mol
-----------------------------------------------------------------------
Total correction                          0.17556264 Eh     110.17 kcal/mol


--------
ENTHALPY
--------

The enthalpy is H = U + kB*T
                kB is Boltzmann's constant
Total thermal energy              ...  -2226.95342743 Eh 
Thermal Enthalpy correction       ...      0.00094421 Eh       0.59 kcal/mol
-----------------------------------------------------------------------
Total Enthalpy                    ...  -2226.95248322 Eh


Note: Only C1 symmetry has been detected, increase convergence thresholds 
      if your molecule has a higher symmetry. Symmetry factor of 1.0 is   
      used for the rotational entropy correction. 
 

Note: Rotational entropy computed according to Herzberg 
Infrared and Raman Spectra, Chapter V,1, Van Nostrand Reinhold, 1945 
Point Group:  C1, Symmetry Number:   1  
Rotational constants in cm-1:     0.018857     0.014904     0.010815 

Vibrational entropy computed according to the QRRHO of S. Grimme
Chem.Eur.J. 2012 18 9955 using a reference frequency of 100.0 cm-1


-------
ENTROPY
-------

The entropy contributions are T*S = T*(S(el)+S(vib)+S(rot)+S(trans))
     S(el)   - electronic entropy
     S(vib)  - vibrational entropy
     S(rot)  - rotational entropy
     S(trans)- translational entropy
The entropies will be listed as multiplied by the temperature to get
units of energy

Electronic entropy                ...      0.00169175 Eh      1.06 kcal/mol
Vibrational entropy               ...      0.02986499 Eh     18.74 kcal/mol
Rotational entropy                ...      0.01550815 Eh      9.73 kcal/mol
Translational entropy             ...      0.02035927 Eh     12.78 kcal/mol
-----------------------------------------------------------------------
Final entropy term                ...      0.06742416 Eh     42.31 kcal/mol

In case the symmetry of your molecule has not been determined correctly
or in case you have a reason to use a different symmetry number we print 
out the resulting rotational entropy values for sn=1,12:

 non-linear molecules -----------------------------------
|  sn= 1 | S(rot)=       0.01550815 Eh      9.73 kcal/mol|
|  sn= 2 | S(rot)=       0.01485370 Eh      9.32 kcal/mol|
|  sn= 3 | S(rot)=       0.01447087 Eh      9.08 kcal/mol|
|  sn= 4 | S(rot)=       0.01419924 Eh      8.91 kcal/mol|
|  sn= 5 | S(rot)=       0.01398855 Eh      8.78 kcal/mol|
|  sn= 6 | S(rot)=       0.01381641 Eh      8.67 kcal/mol|
|  sn= 7 | S(rot)=       0.01367086 Eh      8.58 kcal/mol|
|  sn= 8 | S(rot)=       0.01354479 Eh      8.50 kcal/mol|
|  sn= 9 | S(rot)=       0.01343358 Eh      8.43 kcal/mol|
|  sn=10 | S(rot)=       0.01333410 Eh      8.37 kcal/mol|
|  sn=11 | S(rot)=       0.01324411 Eh      8.31 kcal/mol|
|  sn=12 | S(rot)=       0.01316195 Eh      8.26 kcal/mol|
 linear molecules ---------------------------------------
|  Dinfh | S(rot)=       0.00959994 Eh      6.02 kcal/mol|
|  Cinfv | S(rot)=       0.01025440 Eh      6.43 kcal/mol|
 --------------------------------------------------------


-------------------
GIBBS FREE ENERGY
-------------------

The Gibbs free energy is G = H - T*S

Total enthalpy                    ...  -2226.95248322 Eh 
Total entropy correction          ...     -0.06742416 Eh    -42.31 kcal/mol
-----------------------------------------------------------------------
Final Gibbs free energy         ...  -2227.01990738 Eh

For completeness - the Gibbs free energy minus the electronic energy
G-E(el)                           ...      0.10908270 Eh     68.45 kcal/mol


Maximum memory used throughout the entire PROP-calculation: 398.4 MB

--------------------------------
SUGGESTED CITATIONS FOR THIS RUN
--------------------------------

Below you find a list of papers that are relevant to this ORCA run
We neither can nor want to force you to cite these papers, but we appreciate if you do
You receive ORCA, which is the product of decades of hard work by many enthusiastic individuals, for free
The only thing we kindly ask in return is that you cite our papers,
We deeply appreciate it, if you show your appreciation for ORCA by not just citing the generic ORCA reference.

Please note that relegating all ORCA citations to the supporting information does *not* help us.
SI sections are not indexed - citations you put there will not count into any citation statistics
But we need these citations in order to attract the funding resources that allow us to do what we are doing

Therefore, if you are a happy ORCA user, please consider citing a few of the papers listed below in the main body of your paper

In addition to the list printed below, the program has created the file SIDVIL-S6.bibtex that contains the list in bibtex format
You can import this file easily into all common literature databanks and citation aid programs


List of essential papers. We consider these as the minimum necessary citations

  1. Neese,F.
     Software update: the ORCA program system, version 5.0
     WIRES Comput. Molec. Sci., 2022 12(1)e1606
     doi.org/10.1002/wcms.1606

List of papers to cite with high priority. The work reported in these papers was absolutely
necessary for this run to complete.
Our perspective: the developers of density functionals and basis sets usually get cited in chemistry papers
Good! But without the algorithms to do something with them, the functionals or basis sets would not do anything.
Hence, in our opinion, the algorithm design and method developments papers are equally worthy of getting cited

  1. Neese,F.
     An improvement of the resolution of the identity approximation for the formation of the Coulomb matrix
     J. Comp. Chem., 2003 24(14)1740-1747
     doi.org/10.1002/jcc.10318
  2. Neese,F.; Wennmohs,F.; Hansen,A.; Becker,U.
     Efficient, approximate and parallel Hartree-Fock and hybrid DFT calculations. A 'chain-of-spheres' algorithm for the Hartree-Fock exchange
     Chem. Phys., 2009 356(1-3)98-109
     doi.org/10.1016/j.chemphys.2008.10.036
  3. Bykov,D.; Petrenko,T.; Izsak,R.; Kossmann,S.; Becker,U.; Valeev,E.; Neese,F.
     Efficient implementation of the analytic second derivatives of Hartree-Fock and hybrid DFT energies: a detailed analysis of different approximations
     Molec. Phys., 2015 113 1961-1977
     doi.org/10.1080/00268976.2015.1025114
  4. Helmich-Paris,B.; de Souza,B.; Neese,F.; Izsák,R.
     An improved chain of spheres for exchange algorithm
     J. Chem. Phys., 2021 155 104109
     doi.org/doi: 10.1063/5.0058766.
  5. Neese,F.
     The SHARK Integral Generation and Digestion System
     J. Comp. Chem., 2022  1-16
     doi.org/10.1002/jcc.26942

List of suggested additional citations. These are papers that are important in the 'surrounding' of 
of this run, or papers that preceded the highly important papers. If you like your results we are grateful for a citation.

  1. Izsak,R.; Neese,F.
     An overlap fitted chain of spheres exchange method
     J. Chem. Phys., 2011 135 144105
     doi.org/10.1063/1.3646921
  2. Izsak,R.; Hansen,A.; Neese,F.
     The resolution of identity and chain of spheres approximations for the LPNO-CCSD singles Fock term
     Molec. Phys., 2012 110 2413-2417
     doi.org/10.1080/00268976.2012.687466
  3. Neese,F.
     The ORCA program system
     WIRES Comput. Molec. Sci., 2012 2(1)73-78
     doi.org/10.1002/wcms.81
  4. Izsak,R.; Neese,F.; Klopper,W.
     Robust fitting techniques in the chain of spheres approximation to the Fock exchange: The role of the complementary space
     J. Chem. Phys., 2013 139 
     doi.org/10.1063/1.4819264
  5. Neese,F.
     Software update: the ORCA program system, version 4.0
     WIRES Comput. Molec. Sci., 2018 8(1)1-6
     doi.org/10.1002/wcms.1327
  6. Neese,F.; Wennmohs,F.; Becker,U.; Riplinger,C.
     The ORCA quantum chemistry program package
     J. Chem. Phys., 2020 152 Art. No. L224108
     doi.org/10.1063/5.0004608

List of optional additional citations

  1. Neese,F.
     Approximate second-order SCF convergence for spin unrestricted wavefunctions
     Chem. Phys. Lett., 2000 325(1-3)93-98
     doi.org/10.1016/s0009-2614(00)00662-x

Timings for individual modules:

Sum of individual times          ...     2226.905 sec (=  37.115 min)
Startup calculation              ...       92.797 sec (=   1.547 min)   4.2 %
SCF iterations                   ...      932.812 sec (=  15.547 min)  41.9 %
Property integrals               ...      290.906 sec (=   4.848 min)  13.1 %
SCF Response                     ...      382.665 sec (=   6.378 min)  17.2 %
Property calculations            ...      230.632 sec (=   3.844 min)  10.4 %
SCF Gradient evaluation          ...      296.848 sec (=   4.947 min)  13.3 %
Geometry relaxation              ...        0.245 sec (=   0.004 min)   0.0 %
                             ****ORCA TERMINATED NORMALLY****
TOTAL RUN TIME: 0 days 0 hours 37 minutes 32 seconds 17 msec
