
                                 *****************
                                 * O   R   C   A *
                                 *****************

                                            #,                                       
                                            ###                                      
                                            ####                                     
                                            #####                                    
                                            ######                                   
                                           ########,                                 
                                     ,,################,,,,,                         
                               ,,#################################,,                 
                          ,,##########################################,,             
                       ,#########################################, ''#####,          
                    ,#############################################,,   '####,        
                  ,##################################################,,,,####,       
                ,###########''''           ''''###############################       
              ,#####''   ,,,,##########,,,,          '''####'''          '####       
            ,##' ,,,,###########################,,,                        '##       
           ' ,,###''''                  '''############,,,                           
         ,,##''                                '''############,,,,        ,,,,,,###''
      ,#''                                            '''#######################'''  
     '                                                          ''''####''''         
             ,#######,   #######,   ,#######,      ##                                
            ,#'     '#,  ##    ##  ,#'     '#,    #''#        ,####,   ,####,        
            ##       ##  ##   ,#'  ##            #'  '#       #'       #'  '#        
            ##       ##  #######   ##           ,######,      #####,   #    #        
            '#,     ,#'  ##    ##  '#,     ,#' ,#      #,     #,   #   #,  ,#        
             '#######'   ##     ##  '#######'  #'      '#     '####' # '####'        



                #########################################################
                #                        -***-                          #
                #          Department of theory and spectroscopy        #
                #                                                       #
                #                      Frank Neese                      #
                #                                                       #
                #     Directorship, Architecture, Infrastructure        #
                #                    SHARK, DRIVERS                     #
                #        Core code/Algorithms in most modules           #
                #                                                       #
                #        Max Planck Institute fuer Kohlenforschung      #
                #                Kaiser Wilhelm Platz 1                 #
                #                 D-45470 Muelheim/Ruhr                 #
                #                      Germany                          #
                #                                                       #
                #                  All rights reserved                  #
                #                        -***-                          #
                #########################################################


                         Program Version 6.0.1  -  RELEASE   -


 With contributions from (in alphabetic order):
[Max-Planck-Institut fuer Kohlenforschung]                               
  Daniel Aravena         : Magnetic Suceptibility                        
  Michael Atanasov       : Ab Initio Ligand Field Theory (pilot matlab implementation)
  Alexander A. Auer      : GIAO ZORA, VPT2 properties, NMR spectrum      
  Ute Becker             : All parallelization in ORCA, NUMFREQ, NUMCALC 
  Giovanni Bistoni       : ED, misc. LED, open-shell LED, HFLD           
  Martin Brehm           : Molecular dynamics                            
  Dmytro Bykov           : pre 5.0 version of the SCF Hessian            
  Marcos Casanova-Páez   : Triplet and SCS-CIS(D). UHF-(DLPNO)-IP/EA/STEOM-CCSD. UHF-CVS-IP/STEOM-CCSD   
  Vijay G. Chilkuri      : MRCI spin determinant printing, contributions to CSF-ICE 
  Pauline Colinet        : FMM embedding                                 
  Dipayan Datta          : RHF DLPNO-CCSD density                        
  Achintya Kumar Dutta   : EOM-CC, STEOM-CC                              
  Nicolas Foglia         : Exact transition moments, OPA infrastructure, MCD improvements    
  Dmitry Ganyushin       : Spin-Orbit,Spin-Spin,Magnetic field MRCI      
  Miquel Garcia-Rates    : C-PCM and meta-GGA Hessian, CCSD/C-PCM, Gaussian charge scheme 
  Tiago L. C. Gouveia    : GS-ROHF, GS-ROCIS                             
  Yang Guo               : DLPNO-NEVPT2, F12-NEVPT2, CIM, IAO-localization        
  Andreas Hansen         : Spin unrestricted coupled pair/coupled cluster methods 
  Ingolf Harden          : AUTO-CI MPn and infrastructure                
  Benjamin Helmich-Paris : MC-RPA, TRAH-(SCF,CASSCF), AVAS, COSX integrals, SCF dyn. polar. 
  Lee Huntington         : MR-EOM, pCC                                   
  Robert Izsak           : Overlap fitted RIJCOSX, COSX-SCS-MP3, EOM     
  Riya Kayal             : Wick's Theorem for AUTO-CI, AUTO-CI UHF-CCSDT 
  Emily Kempfer          : AUTO-CI, RHF CISDT and CCSDT                  
  Christian Kollmar      : KDIIS, OOCD, Brueckner-CCSD(T), CCSD density, CASPT2, CASPT2-K, improved NEVPT2 
  Axel Koslowski         : Symmetry handling                             
  Simone Kossmann        : meta-GGA functionals, TD-DFT gradient, OOMP2, (MP2 Hessian; deprecated post 5.0) 
  Lucas Lang             : DCDCAS                                        
  Marvin Lechner         : AUTO-CI (C++ implementation), FIC-MRCC        
  Spencer Leger          : CASSCF response                               
  Dagmar Lenk            : GEPOL surface, SMD, ORCA-2-JSON               
  Dimitrios Liakos       : Extrapolation schemes; Compound Job, initial MDCI parallelization 
  Dimitrios Manganas     : Further ROCIS development; embedding schemes. LFT, Crystal Embedding 
  Dimitrios Pantazis     : SARC Basis sets                               
  Anastasios Papadopoulos: AUTO-CI, single reference methods and gradients 
  Taras Petrenko         : pre 6.0 DFT Hessian and TD-DFT gradient, (ASA, deprecated), ECA, 1-Electron XAS/XES, NRVS 
  Peter Pinski           : DLPNO-MP2, DLPNO-MP2 Gradient                 
  Christoph Reimann      : Effective Core Potentials                     
  Marius Retegan         : Local ZFS, SOC                                
  Christoph Riplinger    : Optimizer, TS searches, QM/MM, DLPNO-CCSD(T), (RO)-DLPNO pert. Triples 
  Michael Roemelt        : Original ROCIS implementation                 
  Masaaki Saitow         : Open-shell DLPNO-CCSD energy and density      
  Barbara Sandhoefer     : DKH picture change effects                    
  Kantharuban Sivalingam : CASSCF convergence/infrastructure, NEVPT2 and variants, FIC-MRCI 
  Bernardo de Souza      : ESD, SOC TD-DFT                               
  Georgi L. Stoychev     : AutoAux, RI-MP2 NMR, DLPNO-MP2 response, X2C  
  Van Anh Tran           : RI-MP2 g-tensors                              
  Willem Van den Heuvel  : Paramagnetic NMR                              
  Zikuan Wang            : NOTCH, Electric field optimization            
  Frank Wennmohs         : Technical directorship and infrastructure     
  Hang Xu                : AUTO-CI-Response properties                   
                                                                         
[FACCTs GmbH]                                                            
  Markus Bursch, Miquel Garcia-Rates, Christoph Riplinger, Bernardo de Souza, Georgi L. Stoychev 
                                                                 
  APM, Basis sets (HGBS, AHGBS, def-TZVP (Ac-Lr), def2-XVPD (La-Lu)), CI-OPT, improved COSX, DLPNO-Multilevel,           
  DOCKER, DRACO, updates on ESD, GOAT, IRC, LR-CPCM, MBIS, meta-GGA TD-DFT gradient, ML-optimized integration grids, 
  MM, NACMEs, nearIR, NEB, NEB-TS, NL-DFT gradient (VV10), 2- and 3-layer-ONIOM, interface openCOSMO-RS, QMMM,   
  Crystal-QMMM, SF, symmetry and pop. for TD-DFT, r2SCAN hybrids, SOLVATOR                                   
                                                                         
[Other institutions]                                                     
  V. Asgeirsson          : NEB                                           
  Christoph Bannwarth    : sTDA-DFT, sTD-DFT, PBEh-3c, B97-3c, D3        
  Sebastian Ehlert       : rSCAN, r2SCAN, r2SCAN-3c, D4, dhf basis sets  
  Marvin Friede          : D4 for Fr, Ra, Ac-Lr                          
  Lars Goerigk           : TD-DFT with DH, B97 family of functionals     
  Stefan Grimme          : VdW corrections, initial TS optimization, DFT functionals, gCP, sTDA/sTD-DF 
  Waldemar Hujo          : DFT-NL                                        
  H. Jonsson             : NEB                                           
  Holger Kruse           : gCP                                           
  Marcel Mueller         : wB97X-3c, vDZP basis set                      
  Hagen Neugebauer       : wr2SCAN                                       
  Tobias Risthaus        : range-separated hybrid DFT                    
  Lukas Wittmann         : regularized MP2, r2SCAN double-hybrids, wr2SCAN        
                                                                         
We gratefully acknowledge several colleagues who have allowed us to      
interface, adapt or use parts of their codes:                            
  Ed Valeev, F. Pavosevic, A. Kumar             : LibInt (2-el integral package), F12 methods 
  Garnet Chan, S. Sharma, J. Yang, R. Olivares  : DMRG                   
  Ulf Ekstrom                                   : XCFun DFT Library      
  Mihaly Kallay                                 : mrcc  (arbitrary order and MRCC methods)
  Frank Weinhold                                : gennbo (NPA and NBO analysis)           
  Simon Mueller                                 : openCOSMO-RS                            
  Christopher J. Cramer and Donald G. Truhlar   : smd solvation model                     
  S Lehtola, MJT Oliveira, MAL Marques          : LibXC Library                           
  Liviu Ungur et al                             : ANISO software                          


 Your calculation uses the libint2 library for the computation of 2-el integrals
 For citations please refer to: http://libint.valeyev.net

 Your ORCA version has been built with support for libXC version: 6.2.2
 For citations please refer to: https://libxc.gitlab.io

 This ORCA versions uses:
   CBLAS   interface :  Fast vector & matrix operations
   LAPACKE interface :  Fast linear algebra routines
   SCALAPACK package :  Parallel linear algebra routines
   Shared memory     :  Shared parallel matrices
   BLAS/LAPACK       :  OpenBLAS 0.3.27  USE64BITINT DYNAMIC_ARCH NO_AFFINITY Cooperlake SINGLE_THREADED
        Core in use  :  Cooperlake
   Copyright (c) 2011-2014, The OpenBLAS Project


NOTE: MaxCore=3600 MB was set to SCF,MP2,MDCI,CIPSI,MRCI and CIS
      => If you want to overwrite this, your respective input block should be placed after the MaxCore statement
Warning: RI is on but no J-basis has been assigned. Assigning Def2/J (nothing to worry about!)
================================================================================

----- Orbital basis set information -----
Your calculation utilizes the basis: def2-TZVP
   F. Weigend and R. Ahlrichs, Phys. Chem. Chem. Phys. 7, 3297 (2005).

----- AuxJ basis set information -----
Your calculation utilizes the auxiliary basis: def2/J
   F. Weigend, Phys. Chem. Chem. Phys. 8, 1057 (2006).

================================================================================
                                        WARNINGS
                       Please study these warnings very carefully!
================================================================================


WARNING: your system is open-shell and RHF/RKS was chosen
  ===> : WILL SWITCH to UHF/UKS


WARNING: Geometry Optimization
  ===> : Switching off AutoStart
         For restart on a previous wavefunction, please use MOREAD

================================================================================
                                       INPUT FILE
================================================================================
NAME = TOQZEH01-S2.inp
|  1> ! PBE0 def2-TZVP  Opt Freq DEFGRID3
|  2> 
|  3> %maxcore 3600
|  4> 
|  5> %pal
|  6>     nprocs 16
|  7> end
|  8> 
|  9> *xyz 0 6
| 10> Fe 4.0276 1.5889 8.7592
| 11> O 2.6697 1.3755 10.1937
| 12> O 2.626 2.1586 7.4845
| 13> O 3.7756 -0.2895 8.2221
| 14> O 5.3103 1.8263 7.2741
| 15> O 4.3319 3.3872 9.4987
| 16> O 5.489 0.9479 9.9644
| 17> C 2.9039 3.4362 11.3899
| 18> C 3.7882 2.22 5.4396
| 19> C 3.7907 2.3605 4.0709
| 20> C 2.3271 2.1769 11.1512
| 21> C 1.3844 2.9036 4.2505
| 22> H 0.5762 3.1537 3.8643
| 23> C 4.9032 2.2054 3.1938
| 24> C 5.1169 1.9495 5.9739
| 25> C 2.6728 2.3825 6.2505
| 26> C 2.5247 2.6673 3.3924
| 27> C 5.6338 -1.3876 9.3403
| 28> C 4.4773 -1.2515 8.4396
| 29> C 6.252 1.8806 5.1607
| 30> H 7.0891 1.7505 5.5461
| 31> C 3.8491 3.985 10.494
| 32> C 2.9464 5.4418 12.7043
| 33> C 1.4542 2.7762 5.5886
| 34> H 0.6958 2.9462 6.0988
| 35> C 4.7259 2.3666 1.799
| 36> H 5.48 2.3183 1.2546
| 37> C 2.4385 4.1681 12.4348
| 38> C 6.0284 -0.1991 10.0732
| 39> C 0.8371 4.3896 14.3237
| 40> H 0.1338 4.0104 14.7946
| 41> C 4.2838 -2.5456 7.7257
| 42> H 3.5675 -2.5504 7.1325
| 43> C 6.1412 1.9972 3.8345
| 44> H 6.9094 1.9396 3.3129
| 45> C 2.4398 2.7857 1.9929
| 46> H 1.6207 3.0061 1.6108
| 47> C 1.4226 3.7093 13.2741
| 48> C 6.42 -2.6738 9.4349
| 49> C 3.9212 5.9704 11.8155
| 50> H 4.2562 6.8288 11.9459
| 51> C 7.4225 -2.7439 10.3781
| 52> C 3.4838 2.5956 1.1938
| 53> H 3.3946 2.6146 0.2689
| 54> C 4.362 5.2244 10.7776
| 55> H 5.0363 5.5648 10.2362
| 56> C 1.3263 1.6891 12.0802
| 57> H 0.9834 0.8306 11.9865
| 58> C 7.0596 -0.3358 11.0708
| 59> H 7.2667 0.3852 11.6207
| 60> C 0.8942 2.4865 13.0802
| 61> H 0.2208 2.1844 13.6442
| 62> C 2.3688 6.1914 13.8627
| 63> H 2.6792 7.0382 14.0882
| 64> C 7.7456 -1.536 11.2126
| 65> H 8.4254 -1.5906 11.8446
| 66> C 6.0031 -3.8531 8.702
| 67> C 4.9764 -3.7412 7.7895
| 68> H 4.7561 -4.4504 7.2294
| 69> C 8.1963 -3.9154 10.5601
| 70> H 8.8802 -3.9335 11.1916
| 71> C 6.9081 -5.0374 8.9361
| 72> H 6.7533 -5.8257 8.4672
| 73> C 1.2744 5.5357 14.6428
| 74> H 0.9137 5.9753 15.376
| 75> C 7.9581 -4.9683 9.8438
| 76> H 8.5074 -5.7106 9.9402
| 77> *
| 78> 
| 79>                          ****END OF INPUT****
================================================================================

                       *****************************
                       * Geometry Optimization Run *
                       *****************************

Geometry optimization settings:
Update method            Update   .... BFGS
Choice of coordinates    CoordSys .... (2022) Redundant Internals
Initial Hessian          InHess   .... Almloef's Model
Max. no of cycles        MaxIter  .... 201

Convergence Tolerances:
Energy Change            TolE     ....  5.0000e-06 Eh
Max. Gradient            TolMAXG  ....  3.0000e-04 Eh/bohr
RMS Gradient             TolRMSG  ....  1.0000e-04 Eh/bohr
Max. Displacement        TolMAXD  ....  4.0000e-03 bohr
RMS Displacement         TolRMSD  ....  2.0000e-03 bohr
Strict Convergence                .... False

------------------------------------------------------------------------------
                        ORCA OPTIMIZATION COORDINATE SETUP
------------------------------------------------------------------------------

The optimization will be done in redundant internal coordinates (2022)
Making redundant internal coordinates   ...  (2022 redundants) done
Evaluating the initial hessian          ...  (Almloef) done
Evaluating the coordinates              ...  done
Calculating the B-matrix                .... done
Calculating the G-matrix                .... done
Diagonalizing the G-matrix              .... done
Small eigenvalue found = 4.066e-03
Small eigenvalue found = 5.455e-03
Small eigenvalue found = 7.405e-03
Small eigenvalue found = 9.281e-03
Small eigenvalue found = 1.257e-02
Small eigenvalue found = 1.408e-02
Small eigenvalue found = 2.695e-02
The first mode is                       ....  239
The number of degrees of freedom        ....  195

    -----------------------------------------------------------------
                    Redundant Internal Coordinates


    -----------------------------------------------------------------
         Definition                    Initial Value    Approx d2E/dq
    -----------------------------------------------------------------
      1. B(O   1,Fe  0)                  1.9868         0.632274   
      2. B(O   2,Fe  0)                  1.9784         0.652097   
      3. B(O   3,Fe  0)                  1.9699         0.672765   
      4. B(O   4,Fe  0)                  1.9767         0.656169   
      5. B(O   5,Fe  0)                  1.9681         0.677188   
      6. B(O   6,Fe  0)                  1.9998         0.602770   
      7. B(C   9,C   8)                  1.3759         0.658025   
      8. B(C  10,C   7)                  1.4055         0.590150   
      9. B(C  10,O   1)                  1.2948         0.793986   
     10. B(H  12,C  11)                  0.9300         0.648192   
     11. B(C  13,C   9)                  1.4251         0.549135   
     12. B(C  14,C   8)                  1.4574         0.487713   
     13. B(C  14,O   4)                  1.3203         0.722989   
     14. B(C  15,C   8)                  1.3886         0.628124   
     15. B(C  15,O   2)                  1.2550         0.918811   
     16. B(C  16,C   9)                  1.4688         0.467830   
     17. B(C  16,C  11)                  1.4465         0.507626   
     18. B(C  18,C  17)                  1.4722         0.462004   
     19. B(C  18,O   3)                  1.2104         1.082363   
     20. B(C  19,C  14)                  1.3980         0.606630   
     21. B(H  20,C  19)                  0.9307         0.646520   
     22. B(C  21,C   7)                  1.4132         0.573687   
     23. B(C  21,O   5)                  1.2574         0.910778   
     24. B(C  23,C  15)                  1.4416         0.516984   
     25. B(C  23,C  11)                  1.3460         0.734510   
     26. B(H  24,C  23)                  0.9297         0.648849   
     27. B(C  25,C  13)                  1.4152         0.569481   
     28. B(H  26,C  25)                  0.9313         0.645022   
     29. B(C  27,C  22)                  1.3975         0.607898   
     30. B(C  27,C   7)                  1.3580         0.702806   
     31. B(C  28,O   6)                  1.2722         0.862734   
     32. B(C  28,C  17)                  1.4510         0.499375   
     33. B(H  30,C  29)                  0.9275         0.654268   
     34. B(C  31,C  18)                  1.4906         0.431807   
     35. B(H  32,C  31)                  0.9301         0.648054   
     36. B(C  33,C  19)                  1.3359         0.762117   
     37. B(C  33,C  13)                  1.4094         0.581758   
     38. B(H  34,C  33)                  0.9303         0.647389   
     39. B(C  35,C  16)                  1.4071         0.586834   
     40. B(H  36,C  35)                  0.9303         0.647407   
     41. B(C  37,C  29)                  1.3810         0.645698   
     42. B(C  37,C  27)                  1.3953         0.612658   
     43. B(C  38,C  17)                  1.5104         0.401435   
     44. B(C  39,C  22)                  1.4211         0.557273   
     45. B(H  40,C  39)                  0.9306         0.646668   
     46. B(C  41,C  38)                  1.3782         0.652379   
     47. B(C  42,C  35)                  1.3284         0.783474   
     48. B(C  42,C  25)                  1.4005         0.601060   
     49. B(H  43,C  42)                  0.9294         0.649641   
     50. B(C  44,C  39)                  1.3521         0.718249   
     51. B(C  44,C  21)                  1.3710         0.669994   
     52. B(H  45,C  44)                  0.9293         0.649757   
     53. B(C  46,C  10)                  1.4500         0.501144   
     54. B(H  47,C  46)                  0.9292         0.650123   
     55. B(C  48,C  28)                  1.4413         0.517531   
     56. B(H  49,C  48)                  0.9301         0.647893   
     57. B(C  50,C  46)                  1.3500         0.723639   
     58. B(C  50,C  37)                  1.3461         0.734080   
     59. B(H  51,C  50)                  0.9289         0.650836   
     60. B(C  52,C  22)                  1.4958         0.423588   
     61. B(H  53,C  52)                  0.9297         0.648985   
     62. B(C  54,C  48)                  1.3897         0.625554   
     63. B(C  54,C  41)                  1.5033         0.412127   
     64. B(H  55,C  54)                  0.9298         0.648646   
     65. B(C  56,C  38)                  1.4497         0.501712   
     66. B(C  57,C  56)                  1.3781         0.652602   
     67. B(C  57,C  31)                  1.3832         0.640616   
     68. B(H  58,C  57)                  0.9302         0.647781   
     69. B(C  59,C  41)                  1.4157         0.568436   
     70. B(H  60,C  59)                  0.9310         0.645700   
     71. B(C  61,C  56)                  1.5088         0.403873   
     72. B(H  62,C  61)                  0.9302         0.647732   
     73. B(C  63,C  52)                  1.4954         0.424215   
     74. B(C  63,C  29)                  1.2675         0.979831   
     75. B(H  64,C  63)                  0.9279         0.653278   
     76. B(C  65,C  61)                  1.3897         0.625545   
     77. B(C  65,C  59)                  1.2955         0.883983   
     78. B(H  66,C  65)                  0.9285         0.651860   
     79. A(O   4,Fe  0,O   6)           90.9781         0.546863   
     80. A(O   2,Fe  0,O   3)           90.4746         0.557730   
     81. A(O   1,Fe  0,O   3)           90.4016         0.554466   
     82. A(O   2,Fe  0,O   4)           86.6213         0.555087   
     83. A(O   3,Fe  0,O   5)          173.4823         0.561752   
     84. A(O   3,Fe  0,O   4)           89.5810         0.558390   
     85. A(O   2,Fe  0,O   5)           95.0784         0.558425   
     86. A(O   1,Fe  0,O   2)           90.6837         0.551190   
     87. A(O   1,Fe  0,O   6)           91.7133         0.543035   
     88. A(O   5,Fe  0,O   6)           87.3315         0.550142   
     89. A(O   1,Fe  0,O   5)           86.1309         0.555157   
     90. A(O   3,Fe  0,O   6)           87.2577         0.549459   
     91. A(O   4,Fe  0,O   5)           94.1420         0.559087   
     92. A(Fe  0,O   1,C  10)          130.4150         0.506416   
     93. A(Fe  0,O   2,C  15)          131.1845         0.523467   
     94. A(Fe  0,O   3,C  18)          129.3980         0.543074   
     95. A(Fe  0,O   4,C  14)          130.9991         0.501105   
     96. A(Fe  0,O   5,C  21)          132.2573         0.526325   
     97. A(Fe  0,O   6,C  28)          130.5716         0.509760   
     98. A(C  21,C   7,C  27)          120.5112         0.437814   
     99. A(C  10,C   7,C  27)          118.2243         0.440055   
    100. A(C  10,C   7,C  21)          120.9800         0.424290   
    101. A(C  14,C   8,C  15)          122.6809         0.416787   
    102. A(C   9,C   8,C  15)          124.7812         0.439778   
    103. A(C   9,C   8,C  14)          112.4567         0.420255   
    104. A(C  13,C   9,C  16)          114.2857         0.403985   
    105. A(C   8,C   9,C  16)          118.6400         0.417149   
    106. A(C   8,C   9,C  13)          127.0518         0.429269   
    107. A(O   1,C  10,C   7)          124.8592         0.446913   
    108. A(C   7,C  10,C  46)          118.4142         0.414186   
    109. A(O   1,C  10,C  46)          116.6281         0.433911   
    110. A(H  12,C  11,C  16)          118.8585         0.377122   
    111. A(C  16,C  11,C  23)          122.2357         0.431693   
    112. A(H  12,C  11,C  23)          118.9056         0.402252   
    113. A(C   9,C  13,C  25)          119.7601         0.418319   
    114. A(C  25,C  13,C  33)          125.0916         0.422649   
    115. A(C   9,C  13,C  33)          114.9599         0.419913   
    116. A(O   4,C  14,C  19)          116.6988         0.441595   
    117. A(C   8,C  14,C  19)          122.4196         0.414214   
    118. A(O   4,C  14,C   8)          120.7905         0.424606   
    119. A(O   2,C  15,C   8)          125.6818         0.464197   
    120. A(C   8,C  15,C  23)          116.2866         0.421139   
    121. A(O   2,C  15,C  23)          117.9477         0.448020   
    122. A(C   9,C  16,C  35)          121.9419         0.408754   
    123. A(C  11,C  16,C  35)          121.9185         0.414718   
    124. A(C   9,C  16,C  11)          116.0760         0.398431   
    125. A(C  18,C  17,C  28)          116.5479         0.396412   
    126. A(C  28,C  17,C  38)          121.6217         0.386788   
    127. A(C  18,C  17,C  38)          121.7322         0.381591   
    128. A(C  17,C  18,C  31)          108.3454         0.386461   
    129. A(O   3,C  18,C  31)          121.9169         0.446705   
    130. A(O   3,C  18,C  17)          129.7039         0.452220   
    131. A(H  20,C  19,C  33)          119.8602         0.404694   
    132. A(C  14,C  19,C  33)          120.3845         0.448787   
    133. A(C  14,C  19,H  20)          119.7551         0.388804   
    134. A(C   7,C  21,C  44)          118.0431         0.434059   
    135. A(O   5,C  21,C  44)          116.7362         0.468962   
    136. A(O   5,C  21,C   7)          125.0278         0.455848   
    137. A(C  39,C  22,C  52)          124.2507         0.398009   
    138. A(C  27,C  22,C  52)          117.7595         0.404150   
    139. A(C  27,C  22,C  39)          117.8852         0.424336   
    140. A(C  15,C  23,H  24)          119.1786         0.378382   
    141. A(C  11,C  23,H  24)          119.0749         0.402324   
    142. A(C  11,C  23,C  15)          121.7465         0.433113   
    143. A(C  13,C  25,H  26)          117.9535         0.384391   
    144. A(H  26,C  25,C  42)          118.2937         0.388021   
    145. A(C  13,C  25,C  42)          123.7527         0.425123   
    146. A(C   7,C  27,C  22)          121.0017         0.442417   
    147. A(C  22,C  27,C  37)          116.6347         0.431605   
    148. A(C   7,C  27,C  37)          122.3529         0.443041   
    149. A(O   6,C  28,C  17)          125.4505         0.440174   
    150. A(C  17,C  28,C  48)          117.8075         0.404411   
    151. A(O   6,C  28,C  48)          116.6203         0.443024   
    152. A(C  37,C  29,C  63)          119.3720         0.475261   
    153. A(H  30,C  29,C  63)          120.2315         0.424071   
    154. A(H  30,C  29,C  37)          120.3955         0.393890   
    155. A(H  32,C  31,C  57)          114.2427         0.392688   
    156. A(C  18,C  31,C  57)          131.5560         0.409302   
    157. A(C  18,C  31,H  32)          114.2011         0.366750   
    158. A(C  19,C  33,H  34)          118.8614         0.404790   
    159. A(C  13,C  33,H  34)          118.6576         0.386066   
    160. A(C  13,C  33,C  19)          122.4809         0.445394   
    161. A(C  16,C  35,H  36)          118.7880         0.386653   
    162. A(H  36,C  35,C  42)          118.6062         0.406774   
    163. A(C  16,C  35,C  42)          122.6059         0.448337   
    164. A(C  29,C  37,C  50)          112.9873         0.450823   
    165. A(C  27,C  37,C  50)          119.8568         0.446547   
    166. A(C  27,C  37,C  29)          127.1455         0.436315   
    167. A(C  41,C  38,C  56)          120.9152         0.421734   
    168. A(C  17,C  38,C  56)          120.7543         0.387103   
    169. A(C  17,C  38,C  41)          117.6964         0.405358   
    170. A(H  40,C  39,C  44)          119.9425         0.400502   
    171. A(C  22,C  39,C  44)          119.9007         0.437238   
    172. A(C  22,C  39,H  40)          120.1568         0.383115   
    173. A(C  54,C  41,C  59)          118.4284         0.397478   
    174. A(C  38,C  41,C  59)          121.8453         0.431272   
    175. A(C  38,C  41,C  54)          119.6940         0.407246   
    176. A(C  35,C  42,H  43)          121.3520         0.407021   
    177. A(C  25,C  42,H  43)          121.2313         0.388505   
    178. A(C  25,C  42,C  35)          117.4166         0.450290   
    179. A(C  39,C  44,H  45)          118.7938         0.400839   
    180. A(C  21,C  44,H  45)          118.8201         0.395968   
    181. A(C  21,C  44,C  39)          122.3860         0.452065   
    182. A(H  47,C  46,C  50)          120.1526         0.401407   
    183. A(C  10,C  46,C  50)          119.7869         0.429546   
    184. A(C  10,C  46,H  47)          120.0604         0.376479   
    185. A(H  49,C  48,C  54)          119.9498         0.391040   
    186. A(C  28,C  48,C  54)          120.3801         0.420911   
    187. A(C  28,C  48,H  49)          119.6701         0.378355   
    188. A(C  46,C  50,H  51)          119.3204         0.401484   
    189. A(C  37,C  50,H  51)          119.5079         0.402499   
    190. A(C  37,C  50,C  46)          121.1717         0.460277   
    191. A(H  53,C  52,C  63)          121.1455         0.365727   
    192. A(C  22,C  52,C  63)          117.8307         0.379505   
    193. A(C  22,C  52,H  53)          121.0235         0.365635   
    194. A(C  48,C  54,H  55)          118.7498         0.391120   
    195. A(C  41,C  54,H  55)          119.1622         0.363890   
    196. A(C  41,C  54,C  48)          122.0880         0.404236   
    197. A(C  57,C  56,C  61)          127.8306         0.405816   
    198. A(C  38,C  56,C  61)          112.8047         0.387512   
    199. A(C  38,C  56,C  57)          118.8762         0.421760   
    200. A(C  56,C  57,H  58)          120.8793         0.393936   
    201. A(C  31,C  57,H  58)          120.8421         0.392659   
    202. A(C  31,C  57,C  56)          118.2785         0.440686   
    203. A(C  41,C  59,H  60)          120.3160         0.384338   
    204. A(H  60,C  59,C  65)          119.6217         0.415379   
    205. A(C  41,C  59,C  65)          120.0619         0.455636   
    206. A(C  56,C  61,H  62)          119.1550         0.362547   
    207. A(H  62,C  61,C  65)          119.8110         0.391022   
    208. A(C  56,C  61,C  65)          121.0327         0.402795   
    209. A(C  29,C  63,C  52)          121.1738         0.440226   
    210. A(C  52,C  63,H  64)          119.2736         0.366141   
    211. A(C  29,C  63,H  64)          119.5517         0.423957   
    212. A(C  61,C  65,H  66)          118.3646         0.391457   
    213. A(C  59,C  65,H  66)          118.9193         0.416082   
    214. A(C  59,C  65,C  61)          122.7157         0.463667   
    215. D(C  10,O   1,Fe  0,O   2)    -97.7793         0.003467   
    216. D(C  10,O   1,Fe  0,O   6)     84.4728         0.003467   
    217. D(C  10,O   1,Fe  0,O   5)     -2.7353         0.003467   
    218. D(C  10,O   1,Fe  0,O   3)    171.7412         0.003467   
    219. D(C  15,O   2,Fe  0,O   3)    -82.4673         0.003594   
    220. D(C  15,O   2,Fe  0,O   1)   -172.8746         0.003594   
    221. D(C  15,O   2,Fe  0,O   4)      7.0849         0.003594   
    222. D(C  15,O   2,Fe  0,O   5)    100.9492         0.003594   
    223. D(C  18,O   3,Fe  0,O   5)    -45.4334         0.003730   
    224. D(C  18,O   3,Fe  0,O   1)   -103.2159         0.003730   
    225. D(C  18,O   3,Fe  0,O   4)     79.4795         0.003730   
    226. D(C  18,O   3,Fe  0,O   6)    -11.5199         0.003730   
    227. D(C  18,O   3,Fe  0,O   2)    166.0971         0.003730   
    228. D(C  14,O   4,Fe  0,O   2)    -15.3543         0.003620   
    229. D(C  14,O   4,Fe  0,O   3)     75.1458         0.003620   
    230. D(C  14,O   4,Fe  0,O   5)   -110.2091         0.003620   
    231. D(C  14,O   4,Fe  0,O   6)    162.3959         0.003620   
    232. D(C  14,O   4,O   1,C  10)   -111.7106         0.001500   
    233. D(C  21,O   5,Fe  0,O   1)      2.8877         0.003759   
    234. D(C  21,O   5,Fe  0,O   4)   -179.8003         0.003759   
    235. D(C  21,O   5,Fe  0,O   6)    -89.0120         0.003759   
    236. D(C  21,O   5,Fe  0,O   3)    -55.1008         0.003759   
    237. D(C  21,O   5,Fe  0,O   2)     93.2313         0.003759   
    238. D(C  28,O   6,O   2,C  15)    -72.7257         0.001500   
    239. D(C  28,O   6,Fe  0,O   3)      8.1441         0.003287   
    240. D(C  28,O   6,Fe  0,O   1)     98.4642         0.003287   
    241. D(C  28,O   6,Fe  0,O   5)   -175.4910         0.003287   
    242. D(C  28,O   6,Fe  0,O   4)    -81.3896         0.003287   
    243. D(C  13,C   9,C   8,C  15)   -179.9970         0.030201   
    244. D(C  16,C   9,C   8,C  14)   -178.6195         0.030201   
    245. D(C  13,C   9,C   8,C  14)      3.2156         0.030201   
    246. D(C  16,C   9,C   8,C  15)     -1.8320         0.030201   
    247. D(C  46,C  10,C   7,C  27)     -3.8173         0.023968   
    248. D(C  46,C  10,C   7,C  21)   -177.7208         0.023968   
    249. D(O   1,C  10,C   7,C  27)    179.9229         0.023968   
    250. D(O   1,C  10,C   7,C  21)      6.0194         0.023968   
    251. D(C  46,C  10,O   1,Fe  0)   -177.3279         0.048500   
    252. D(C   7,C  10,O   1,Fe  0)     -1.0078         0.048500   
    253. D(C  33,C  13,C   9,C  16)    176.0497         0.020627   
    254. D(C  33,C  13,C   9,C   8)     -5.7171         0.020627   
    255. D(C  25,C  13,C   9,C  16)      0.7851         0.020627   
    256. D(C  25,C  13,C   9,C   8)    179.0183         0.020627   
    257. D(C  19,C  14,C   8,C  15)   -175.3643         0.016196   
    258. D(C  19,C  14,C   8,C   9)      1.5010         0.016196   
    259. D(O   4,C  14,C   8,C   9)    177.9149         0.016196   
    260. D(O   4,C  14,C   8,C  15)      1.0496         0.016196   
    261. D(C  19,C  14,O   4,Fe  0)   -169.6200         0.039395   
    262. D(C   8,C  14,O   4,Fe  0)     13.7682         0.039395   
    263. D(C  23,C  15,C   8,C  14)    174.0314         0.027345   
    264. D(C  23,C  15,C   8,C   9)     -2.4409         0.027345   
    265. D(O   2,C  15,C   8,C  14)     -9.3840         0.027345   
    266. D(O   2,C  15,C   8,C   9)    174.1437         0.027345   
    267. D(C  23,C  15,O   2,Fe  0)    179.2816         0.067453   
    268. D(C   8,C  15,O   2,Fe  0)      2.7482         0.067453   
    269. D(C  35,C  16,C  11,C  23)    179.1667         0.017559   
    270. D(C  35,C  16,C  11,H  12)     -0.9595         0.017559   
    271. D(C   9,C  16,C  11,C  23)     -3.6834         0.017559   
    272. D(C   9,C  16,C  11,H  12)    176.1904         0.017559   
    273. D(C  35,C  16,C   9,C  13)      0.3472         0.014904   
    274. D(C  35,C  16,C   9,C   8)   -178.0461         0.014904   
    275. D(C  11,C  16,C   9,C  13)   -176.8019         0.014904   
    276. D(C  11,C  16,C   9,C   8)      4.8047         0.014904   
    277. D(C  17,C  18,O   3,Fe  0)     10.4728         0.098414   
    278. D(C  31,C  18,C  17,C  38)      0.2346         0.014539   
    279. D(C  31,C  18,C  17,C  28)    176.6873         0.014539   
    280. D(O   3,C  18,C  17,C  38)   -177.6453         0.014539   
    281. D(O   3,C  18,C  17,C  28)     -1.1926         0.014539   
    282. D(C  31,C  18,O   3,Fe  0)   -167.1563         0.098414   
    283. D(C  33,C  19,C  14,C   8)     -3.3997         0.025400   
    284. D(C  33,C  19,C  14,O   4)   -179.9516         0.025400   
    285. D(H  20,C  19,C  14,C   8)    176.7606         0.025400   
    286. D(H  20,C  19,C  14,O   4)      0.2087         0.025400   
    287. D(C  44,C  21,C   7,C  27)      5.4999         0.022589   
    288. D(C  44,C  21,C   7,C  10)    179.2643         0.022589   
    289. D(O   5,C  21,C   7,C  27)   -179.7253         0.022589   
    290. D(O   5,C  21,C   7,C  10)     -5.9609         0.022589   
    291. D(C  44,C  21,O   5,Fe  0)    175.6216         0.066115   
    292. D(C   7,C  21,O   5,Fe  0)      0.7852         0.066115   
    293. D(H  24,C  23,C  15,C   8)   -176.3471         0.018223   
    294. D(H  24,C  23,C  15,O   2)      6.7932         0.018223   
    295. D(C  11,C  23,C  15,C   8)      3.6975         0.018223   
    296. D(C  11,C  23,C  15,O   2)   -173.1622         0.018223   
    297. D(H  24,C  23,C  11,C  16)    179.4619         0.038323   
    298. D(H  24,C  23,C  11,H  12)     -0.4118         0.038323   
    299. D(C  15,C  23,C  11,C  16)     -0.5827         0.038323   
    300. D(C  15,C  23,C  11,H  12)    179.5436         0.038323   
    301. D(C  42,C  25,C  13,C  33)   -178.8374         0.022245   
    302. D(C  42,C  25,C  13,C   9)     -4.0856         0.022245   
    303. D(H  26,C  25,C  13,C  33)      1.0822         0.022245   
    304. D(H  26,C  25,C  13,C   9)    175.8340         0.022245   
    305. D(C  37,C  27,C  22,C  52)      0.3806         0.025512   
    306. D(C  37,C  27,C  22,C  39)   -176.0611         0.025512   
    307. D(C   7,C  27,C  22,C  52)    179.2193         0.025512   
    308. D(C   7,C  27,C  22,C  39)      2.7776         0.025512   
    309. D(C  37,C  27,C   7,C  21)    174.3500         0.034812   
    310. D(C  37,C  27,C   7,C  10)      0.4168         0.034812   
    311. D(C  22,C  27,C   7,C  21)     -4.4212         0.034812   
    312. D(C  22,C  27,C   7,C  10)   -178.3544         0.034812   
    313. D(C  48,C  28,C  17,C  38)    -10.2691         0.016985   
    314. D(C  48,C  28,C  17,C  18)    173.2739         0.016985   
    315. D(O   6,C  28,C  17,C  38)    173.8898         0.016985   
    316. D(O   6,C  28,C  17,C  18)     -2.5672         0.016985   
    317. D(C  48,C  28,O   6,Fe  0)   -179.0604         0.058460   
    318. D(C  17,C  28,O   6,Fe  0)     -3.1751         0.058460   
    319. D(C  57,C  31,C  18,C  17)      0.0351         0.012736   
    320. D(C  57,C  31,C  18,O   3)    178.1135         0.012736   
    321. D(H  32,C  31,C  18,C  17)    179.8632         0.012736   
    322. D(H  32,C  31,C  18,O   3)     -2.0584         0.012736   
    323. D(H  34,C  33,C  19,H  20)      0.4471         0.041552   
    324. D(H  34,C  33,C  19,C  14)   -179.3925         0.041552   
    325. D(C  13,C  33,C  19,H  20)   -179.5095         0.041552   
    326. D(C  13,C  33,C  19,C  14)      0.6509         0.041552   
    327. D(H  34,C  33,C  13,C  25)     -1.4629         0.023259   
    328. D(H  34,C  33,C  13,C   9)   -176.4381         0.023259   
    329. D(C  19,C  33,C  13,C  25)    178.4938         0.023259   
    330. D(C  19,C  33,C  13,C   9)      3.5186         0.023259   
    331. D(C  42,C  35,C  16,C  11)    178.7479         0.023686   
    332. D(C  42,C  35,C  16,C   9)      1.7648         0.023686   
    333. D(H  36,C  35,C  16,C  11)     -1.2300         0.023686   
    334. D(H  36,C  35,C  16,C   9)   -178.2131         0.023686   
    335. D(C  27,C  37,C  29,C  63)     -3.6380         0.029002   
    336. D(C  27,C  37,C  29,H  30)    176.7199         0.029002   
    337. D(C  50,C  37,C  27,C  22)   -179.4334         0.025936   
    338. D(C  50,C  37,C  27,C   7)      1.7450         0.025936   
    339. D(C  29,C  37,C  27,C  22)      1.8221         0.025936   
    340. D(C  50,C  37,C  29,H  30)     -2.0974         0.029002   
    341. D(C  29,C  37,C  27,C   7)   -176.9996         0.025936   
    342. D(C  50,C  37,C  29,C  63)    177.5448         0.029002   
    343. D(C  56,C  38,C  17,C  28)    179.5424         0.011076   
    344. D(C  56,C  38,C  17,C  18)     -4.1844         0.011076   
    345. D(C  41,C  38,C  17,C  28)      8.5880         0.011076   
    346. D(C  41,C  38,C  17,C  18)   -175.1387         0.011076   
    347. D(C  44,C  39,C  22,C  52)   -178.5452         0.021265   
    348. D(C  44,C  39,C  22,C  27)     -2.3550         0.021265   
    349. D(H  40,C  39,C  22,C  52)      1.4098         0.021265   
    350. D(H  40,C  39,C  22,C  27)    177.6001         0.021265   
    351. D(C  59,C  41,C  38,C  56)      7.8031         0.029648   
    352. D(C  59,C  41,C  38,C  17)    178.7421         0.029648   
    353. D(C  54,C  41,C  38,C  56)   -174.2963         0.029648   
    354. D(C  54,C  41,C  38,C  17)     -3.3573         0.029648   
    355. D(H  43,C  42,C  35,H  36)     -4.7276         0.044161   
    356. D(H  43,C  42,C  35,C  16)    175.2944         0.044161   
    357. D(C  25,C  42,C  35,H  36)    175.2047         0.044161   
    358. D(C  25,C  42,C  35,C  16)     -4.7732         0.044161   
    359. D(H  43,C  42,C  25,H  26)      6.0653         0.024910   
    360. D(H  43,C  42,C  25,C  13)   -174.0154         0.024910   
    361. D(C  35,C  42,C  25,H  26)   -173.8672         0.024910   
    362. D(C  35,C  42,C  25,C  13)      6.0522         0.024910   
    363. D(H  45,C  44,C  39,H  40)      3.6856         0.036496   
    364. D(H  45,C  44,C  39,C  22)   -176.3593         0.036496   
    365. D(C  21,C  44,C  39,H  40)   -176.2266         0.036496   
    366. D(C  21,C  44,C  39,C  22)      3.7285         0.036496   
    367. D(H  45,C  44,C  21,C   7)    174.8838         0.031394   
    368. D(H  45,C  44,C  21,O   5)     -0.3263         0.031394   
    369. D(C  39,C  44,C  21,C   7)     -5.2040         0.031394   
    370. D(C  39,C  44,C  21,O   5)    179.5859         0.031394   
    371. D(C  50,C  46,C  10,C   7)      5.3179         0.017107   
    372. D(C  50,C  46,C  10,O   1)   -178.1149         0.017107   
    373. D(H  47,C  46,C  10,C   7)   -174.7341         0.017107   
    374. D(H  47,C  46,C  10,O   1)      1.8331         0.017107   
    375. D(C  54,C  48,C  28,C  17)      6.8901         0.018263   
    376. D(C  54,C  48,C  28,O   6)   -176.8989         0.018263   
    377. D(H  49,C  48,C  28,C  17)   -173.2300         0.018263   
    378. D(H  49,C  48,C  28,O   6)      2.9810         0.018263   
    379. D(H  51,C  50,C  46,H  47)     -3.1678         0.037096   
    380. D(H  51,C  50,C  46,C  10)    176.7801         0.037096   
    381. D(C  37,C  50,C  46,H  47)    176.7746         0.037096   
    382. D(C  37,C  50,C  46,C  10)     -3.2775         0.037096   
    383. D(H  51,C  50,C  37,C  29)     -1.3640         0.038274   
    384. D(H  51,C  50,C  37,C  27)    179.7230         0.038274   
    385. D(C  46,C  50,C  37,C  29)    178.6937         0.038274   
    386. D(C  46,C  50,C  37,C  27)     -0.2192         0.038274   
    387. D(C  63,C  52,C  22,C  39)    175.3775         0.012272   
    388. D(C  63,C  52,C  22,C  27)     -0.8172         0.012272   
    389. D(H  53,C  52,C  22,C  39)     -4.4661         0.012272   
    390. D(H  53,C  52,C  22,C  27)    179.3393         0.012272   
    391. D(H  55,C  54,C  48,H  49)     -1.8509         0.027108   
    392. D(H  55,C  54,C  48,C  28)    178.0287         0.027108   
    393. D(C  41,C  54,C  48,H  49)    178.1404         0.027108   
    394. D(C  41,C  54,C  48,C  28)     -1.9801         0.027108   
    395. D(H  55,C  54,C  41,C  59)     -1.8082         0.011643   
    396. D(H  55,C  54,C  41,C  38)   -179.7803         0.011643   
    397. D(C  48,C  54,C  41,C  59)    178.2006         0.011643   
    398. D(C  48,C  54,C  41,C  38)      0.2285         0.011643   
    399. D(C  61,C  56,C  38,C  41)     -8.8082         0.017147   
    400. D(C  61,C  56,C  38,C  17)   -179.4701         0.017147   
    401. D(C  57,C  56,C  38,C  41)    178.5852         0.017147   
    402. D(C  57,C  56,C  38,C  17)      7.9233         0.017147   
    403. D(H  58,C  57,C  56,C  61)      1.0137         0.029670   
    404. D(H  58,C  57,C  56,C  38)    172.3759         0.029670   
    405. D(C  31,C  57,C  56,C  61)   -178.8325         0.029670   
    406. D(C  31,C  57,C  56,C  38)     -7.4703         0.029670   
    407. D(H  58,C  57,C  31,H  32)      4.0560         0.028517   
    408. D(H  58,C  57,C  31,C  18)   -176.1159         0.028517   
    409. D(C  56,C  57,C  31,H  32)   -176.0977         0.028517   
    410. D(C  56,C  57,C  31,C  18)      3.7303         0.028517   
    411. D(C  65,C  59,C  41,C  54)   -178.9783         0.022160   
    412. D(C  65,C  59,C  41,C  38)     -1.0520         0.022160   
    413. D(H  60,C  59,C  41,C  54)      0.7984         0.022160   
    414. D(H  60,C  59,C  41,C  38)    178.7246         0.022160   
    415. D(C  65,C  61,C  56,C  57)    176.0155         0.011204   
    416. D(C  65,C  61,C  56,C  38)      4.2177         0.011204   
    417. D(H  62,C  61,C  56,C  57)     -4.3889         0.011204   
    418. D(H  62,C  61,C  56,C  38)   -176.1867         0.011204   
    419. D(H  64,C  63,C  52,H  53)     -1.4111         0.012307   
    420. D(H  64,C  63,C  52,C  22)    178.7455         0.012307   
    421. D(C  29,C  63,C  52,H  53)    178.9366         0.012307   
    422. D(C  29,C  63,C  52,C  22)     -0.9068         0.012307   
    423. D(H  64,C  63,C  29,C  37)   -176.7118         0.072936   
    424. D(H  64,C  63,C  29,H  30)      2.9309         0.072936   
    425. D(C  52,C  63,C  29,C  37)      2.9396         0.072936   
    426. D(C  52,C  63,C  29,H  30)   -177.4177         0.072936   
    427. D(H  66,C  65,C  61,H  62)      2.2091         0.027107   
    428. D(H  66,C  65,C  61,C  56)   -178.1979         0.027107   
    429. D(C  59,C  65,C  61,H  62)   -177.5594         0.027107   
    430. D(C  59,C  65,C  61,C  56)      2.0336         0.027107   
    431. D(H  66,C  65,C  59,H  60)     -3.4006         0.057784   
    432. D(H  66,C  65,C  59,C  41)    176.3776         0.057784   
    433. D(C  61,C  65,C  59,H  60)    176.3667         0.057784   
    434. D(C  61,C  65,C  59,C  41)     -3.8551         0.057784   
    -----------------------------------------------------------------

Number of atoms                         .... 67
Number of degrees of freedom            .... 434


         *************************************************************
         *                GEOMETRY OPTIMIZATION CYCLE   1            *
         *************************************************************
---------------------------------
CARTESIAN COORDINATES (ANGSTROEM)
---------------------------------
  Fe     4.027600    1.588900    8.759200
  O      2.669700    1.375500   10.193700
  O      2.626000    2.158600    7.484500
  O      3.775600   -0.289500    8.222100
  O      5.310300    1.826300    7.274100
  O      4.331900    3.387200    9.498700
  O      5.489000    0.947900    9.964400
  C      2.903900    3.436200   11.389900
  C      3.788200    2.220000    5.439600
  C      3.790700    2.360500    4.070900
  C      2.327100    2.176900   11.151200
  C      1.384400    2.903600    4.250500
  H      0.576200    3.153700    3.864300
  C      4.903200    2.205400    3.193800
  C      5.116900    1.949500    5.973900
  C      2.672800    2.382500    6.250500
  C      2.524700    2.667300    3.392400
  C      5.633800   -1.387600    9.340300
  C      4.477300   -1.251500    8.439600
  C      6.252000    1.880600    5.160700
  H      7.089100    1.750500    5.546100
  C      3.849100    3.985000   10.494000
  C      2.946400    5.441800   12.704300
  C      1.454200    2.776200    5.588600
  H      0.695800    2.946200    6.098800
  C      4.725900    2.366600    1.799000
  H      5.480000    2.318300    1.254600
  C      2.438500    4.168100   12.434800
  C      6.028400   -0.199100   10.073200
  C      0.837100    4.389600   14.323700
  H      0.133800    4.010400   14.794600
  C      4.283800   -2.545600    7.725700
  H      3.567500   -2.550400    7.132500
  C      6.141200    1.997200    3.834500
  H      6.909400    1.939600    3.312900
  C      2.439800    2.785700    1.992900
  H      1.620700    3.006100    1.610800
  C      1.422600    3.709300   13.274100
  C      6.420000   -2.673800    9.434900
  C      3.921200    5.970400   11.815500
  H      4.256200    6.828800   11.945900
  C      7.422500   -2.743900   10.378100
  C      3.483800    2.595600    1.193800
  H      3.394600    2.614600    0.268900
  C      4.362000    5.224400   10.777600
  H      5.036300    5.564800   10.236200
  C      1.326300    1.689100   12.080200
  H      0.983400    0.830600   11.986500
  C      7.059600   -0.335800   11.070800
  H      7.266700    0.385200   11.620700
  C      0.894200    2.486500   13.080200
  H      0.220800    2.184400   13.644200
  C      2.368800    6.191400   13.862700
  H      2.679200    7.038200   14.088200
  C      7.745600   -1.536000   11.212600
  H      8.425400   -1.590600   11.844600
  C      6.003100   -3.853100    8.702000
  C      4.976400   -3.741200    7.789500
  H      4.756100   -4.450400    7.229400
  C      8.196300   -3.915400   10.560100
  H      8.880200   -3.933500   11.191600
  C      6.908100   -5.037400    8.936100
  H      6.753300   -5.825700    8.467200
  C      1.274400    5.535700   14.642800
  H      0.913700    5.975300   15.376000
  C      7.958100   -4.968300    9.843800
  H      8.507400   -5.710600    9.940200

----------------------------
CARTESIAN COORDINATES (A.U.)
----------------------------
  NO LB      ZA    FRAG     MASS         X           Y           Z
   0 Fe   26.0000    0    55.850    7.611061    3.002586   16.552489
   1 O     8.0000    0    15.999    5.045002    2.599318   19.263301
   2 O     8.0000    0    15.999    4.962421    4.079163   14.143655
   3 O     8.0000    0    15.999    7.134850   -0.547076   15.537517
   4 O     8.0000    0    15.999   10.035013    3.451207   13.746057
   5 O     8.0000    0    15.999    8.186105    6.400880   17.949942
   6 O     8.0000    0    15.999   10.372707    1.791271   18.829987
   7 C     6.0000    0    12.011    5.487576    6.493477   21.523792
   8 C     6.0000    0    12.011    7.158661    4.195192   10.279354
   9 C     6.0000    0    12.011    7.163385    4.460699    7.692886
  10 C     6.0000    0    12.011    4.397582    4.113745   21.072714
  11 C     6.0000    0    12.011    2.616137    5.487009    8.032281
  12 H     1.0000    0     1.008    1.088860    5.959629    7.302469
  13 C     6.0000    0    12.011    9.265705    4.167602    6.035407
  14 C     6.0000    0    12.011    9.669540    3.684021   11.289035
  15 C     6.0000    0    12.011    5.050860    4.502273   11.811733
  16 C     6.0000    0    12.011    4.770992    5.040467    6.410707
  17 C     6.0000    0    12.011   10.646339   -2.622184   17.650609
  18 C     6.0000    0    12.011    8.460871   -2.364992   15.948533
  19 C     6.0000    0    12.011   11.814568    3.553819    9.752310
  20 H     1.0000    0     1.008   13.396458    3.307966   10.480610
  21 C     6.0000    0    12.011    7.273745    7.530559   19.830786
  22 C     6.0000    0    12.011    5.567889   10.283512   24.007648
  23 C     6.0000    0    12.011    2.748040    5.246258   10.560923
  24 H     1.0000    0     1.008    1.314871    5.567511   11.525062
  25 C     6.0000    0    12.011    8.930657    4.472226    3.399617
  26 H     1.0000    0     1.008   10.355699    4.380952    2.370850
  27 C     6.0000    0    12.011    4.608097    7.876567   23.498367
  28 C     6.0000    0    12.011   11.392025   -0.376244   19.035589
  29 C     6.0000    0    12.011    1.581890    8.295142   27.067870
  30 H     1.0000    0     1.008    0.252845    7.578558   27.957742
  31 C     6.0000    0    12.011    8.095209   -4.810487   14.599457
  32 H     1.0000    0     1.008    6.741598   -4.819558   13.478472
  33 C     6.0000    0    12.011   11.605186    3.774161    7.246155
  34 H     1.0000    0     1.008   13.056874    3.665313    6.260474
  35 C     6.0000    0    12.011    4.610554    5.264210    3.766035
  36 H     1.0000    0     1.008    3.062679    5.680706    3.043971
  37 C     6.0000    0    12.011    2.688324    7.009561   25.084414
  38 C     6.0000    0    12.011   12.132042   -5.052750   17.829377
  39 C     6.0000    0    12.011    7.409994   11.282421   22.328059
  40 H     1.0000    0     1.008    8.043052   12.904562   22.574479
  41 C     6.0000    0    12.011   14.026492   -5.185220   19.611767
  42 C     6.0000    0    12.011    6.583428    4.904973    2.255955
  43 H     1.0000    0     1.008    6.414864    4.940878    0.508147
  44 C     6.0000    0    12.011    8.242985    9.872685   20.366712
  45 H     1.0000    0     1.008    9.517228   10.515948   19.343615
  46 C     6.0000    0    12.011    2.506344    3.191936   22.828270
  47 H     1.0000    0     1.008    1.858357    1.569607   22.651202
  48 C     6.0000    0    12.011   13.340711   -0.634570   20.920780
  49 H     1.0000    0     1.008   13.732073    0.727923   21.959940
  50 C     6.0000    0    12.011    1.689793    4.698804   24.717996
  51 H     1.0000    0     1.008    0.417252    4.127918   25.783801
  52 C     6.0000    0    12.011    4.476383   11.700050   26.196706
  53 H     1.0000    0     1.008    5.062954   13.300270   26.622840
  54 C     6.0000    0    12.011   14.637063   -2.902619   21.188743
  55 H     1.0000    0     1.008   15.921699   -3.005798   22.383050
  56 C     6.0000    0    12.011   11.344215   -7.281304   16.444397
  57 C     6.0000    0    12.011    9.404033   -7.069843   14.720022
  58 H     1.0000    0     1.008    8.987726   -8.410037   13.661586
  59 C     6.0000    0    12.011   15.488762   -7.399034   19.955697
  60 H     1.0000    0     1.008   16.781146   -7.433238   21.149059
  61 C     6.0000    0    12.011   13.054417   -9.519306   16.886782
  62 H     1.0000    0     1.008   12.761888  -11.008978   16.000689
  63 C     6.0000    0    12.011    2.408267   10.460957   27.670882
  64 H     1.0000    0     1.008    1.726643   11.291681   29.056429
  65 C     6.0000    0    12.011   15.038630   -9.388726   18.602086
  66 H     1.0000    0     1.008   16.076656  -10.791470   18.784256

--------------------------------
INTERNAL COORDINATES (ANGSTROEM)
--------------------------------
 Fe     0   0   0     0.000000000000     0.00000000     0.00000000
 O      1   0   0     1.986761742132     0.00000000     0.00000000
 O      1   2   0     1.978358091954    90.68366147     0.00000000
 O      1   2   3     1.969864708552    90.40155726   269.52057261
 O      1   2   3     1.976663871274   177.30462564   359.14017074
 O      1   2   3     1.968080697024    86.13085052    95.04400447
 O      1   2   3     1.999769486716    91.71327800   182.25211935
 C      6   1   2     2.370278979361   103.03459738     3.28124750
 C      3   1   2     2.352890734820   102.56528942   188.47472179
 C      9   3   1     1.375894687104   150.24075940   172.39831746
 C      2   1   3     1.294767535120   130.41495881   262.22066662
 C     10   9   3     2.473356719117    87.04340645     5.80296883
 H     12  10   9     0.929993381697   150.97095824   177.33401626
 C     10   9   3     1.425137421444   127.05175585   185.11279832
 C      5   1   6     1.320265821719   130.99909828   249.79090678
 C      3   1   2     1.255020896240   131.18446372   187.12542804
 C     12  10   9     1.446532885903    32.23453844   184.22135141
 C      7   1   2     2.421782009182   101.39089141    96.88394754
 C      4   1   2     1.210426842069   129.39801722   256.78409757
 C     15   5   1     1.398031995342   116.69876849   190.37996188
 H     20  15   5     0.930696287733   119.75507701     0.20870733
 C      6   1   2     1.257411138013   132.25734859     2.88774557
 C      8   6   1     2.398308772865   116.35249573   178.44048944
 C     12  10   9     1.345962261730    90.05459429     1.10632457
 H     24  12  10     0.929717483970   119.07492378   177.49819749
 C     14  10   9     1.415234174969   119.76014594   179.01826857
 H     26  14  10     0.931327579319   117.95352534   175.83401683
 C      8   6   1     1.357973040970   146.25819086   181.02252733
 C      7   1   2     1.272163039866   130.57155845    98.46415838
 C     28   8   6     2.486259724968   148.57713989   171.58729860
 H     30  28   8     0.927453686175   146.90304830   359.67986714
 C     19   4   1     1.490567096779   121.91689802   192.84368293
 H     32  19   4     0.930051057738   114.20106354   357.94163069
 C     20  15   5     1.335918650218   120.38454728   180.04844716
 H     34  20  15     0.930330887373   118.86143170   180.60748598
 C     17  12  10     1.407063189768   121.91849180   182.85012423
 H     36  17  12     0.930323266397   118.78796122   358.76995971
 C     30  28   8     1.381042540981    26.57388715     4.86536509
 C     18   7   1     1.510420484501   146.74037999   168.02747342
 C     23   8   6     1.421132801676    88.87951037   359.58356986
 H     40  23   8     0.930634041931   120.15677109   178.94798406
 C     39  18   7     1.378240363652   117.69635383    13.35204770
 C     36  17  12     1.328395581143   122.60585319   178.74788128
 H     43  36  17     0.929385630403   121.35198550   175.29439308
 C     40  23   8     1.352056600147   119.90073966   358.99294635
 H     45  40  23     0.929336650520   118.79380901   183.64073305
 C     11   2   1     1.450031199664   116.62805427   182.67205691
 H     47  11   2     0.929183700890   120.06044732     1.83307936
 C     29   7   1     1.441272385776   116.62033418   180.93960914
 H     49  29   7     0.930119035393   119.67006485     2.98097142
 C     38  30  28     1.346121692121   112.98730638   181.18275057
 H     51  38  30     0.928885337380   119.50789820   358.63598635
 C     23   8   6     1.495798275169   146.78991006   175.86684792
 H     53  23   8     0.929660502549   121.02352935   180.03103541
 C     49  29   7     1.389670205480   120.38005534   183.10109340
 H     55  49  29     0.929802774786   118.74982249   178.02867222
 C     39  18   7     1.449722908007   120.75434121   184.30636149
 C     57  39  18     1.378147579180   118.87620204     7.92328758
 H     58  57  39     0.930165974437   120.87927992   172.37588688
 C     42  39  18     1.415733975717   121.84532253   178.74212739
 H     60  42  39     0.931041927090   120.31597244   178.72463734
 C     57  39  18     1.508772448052   112.80468827   180.52988594
 H     62  57  39     0.930186615685   119.15504058   183.81327097
 C     30  28   8     1.267517775023    92.84319287   181.69162449
 H     64  30  28     0.927865771542   119.55167378   181.65964897
 C     60  42  39     1.295539787116   120.06194419   358.94795296
 H     66  60  42     0.928457182642   118.91933437   176.37762638

---------------------------
INTERNAL COORDINATES (A.U.)
---------------------------
 Fe     0   0   0     0.000000000000     0.00000000     0.00000000
 O      1   0   0     3.754435585982     0.00000000     0.00000000
 O      1   2   0     3.738554988620    90.68366147     0.00000000
 O      1   2   3     3.722504820041    90.40155726   269.52057261
 O      1   2   3     3.735353375524   177.30462564   359.14017074
 O      1   2   3     3.719133526833    86.13085052    95.04400447
 O      1   2   3     3.779016660865    91.71327800   182.25211935
 C      6   1   2     4.479178131982   103.03459738     3.28124750
 C      3   1   2     4.446319111850   102.56528942   188.47472179
 C      9   3   1     2.600064147743   150.24075940   172.39831746
 C      2   1   3     2.446756048469   130.41495881   262.22066662
 C     10   9   3     4.673966830625    87.04340645     5.80296883
 H     12  10   9     1.757432797766   150.97095824   177.33401626
 C     10   9   3     2.693119429732   127.05175585   185.11279832
 C      5   1   6     2.494940827026   130.99909828   249.79090678
 C      3   1   2     2.371645786243   131.18446372   187.12542804
 C     12  10   9     2.733550998068    32.23453844   184.22135141
 C      7   1   2     4.576504753412   101.39089141    96.88394754
 C      4   1   2     2.287375236657   129.39801722   256.78409757
 C     15   5   1     2.641897597656   116.69876849   190.37996188
 H     20  15   5     1.758761097673   119.75507701     0.20870733
 C      6   1   2     2.376162688587   132.25734859     2.88774557
 C      8   6   1     4.532146765295   116.35249573   178.44048944
 C     12  10   9     2.543500061262    90.05459429     1.10632457
 H     24  12  10     1.756911426622   119.07492378   177.49819749
 C     14  10   9     2.674405006057   119.76014594   179.01826857
 H     26  14  10     1.759954065881   117.95352534   175.83401683
 C      8   6   1     2.566197144681   146.25819086   181.02252733
 C      7   1   2     2.404039743043   130.57155845    98.46415838
 C     28   8   6     4.698349977989   148.57713989   171.58729860
 H     30  28   8     1.752633468767   146.90304830   359.67986714
 C     19   4   1     2.816763597146   121.91689802   192.84368293
 H     32  19   4     1.757541789689   114.20106354   357.94163069
 C     20  15   5     2.524520386110   120.38454728   180.04844716
 H     34  20  15     1.758070591063   118.86143170   180.60748598
 C     17  12  10     2.658964081783   121.91849180   182.85012423
 H     36  17  12     1.758056189506   118.78796122   358.76995971
 C     30  28   8     2.609792181749    26.57388715     4.86536509
 C     18   7   1     2.854281062771   146.74037999   168.02747342
 C     23   8   6     2.685551795100    88.87951037   359.58356986
 H     40  23   8     1.758643470153   120.15677109   178.94798406
 C     39  18   7     2.604496834019   117.69635383    13.35204770
 C     36  17  12     2.510303845871   122.60585319   178.74788128
 H     43  36  17     1.756284314264   121.35198550   175.29439308
 C     40  23   8     2.555016691838   119.90073966   358.99294635
 H     45  40  23     1.756191755699   118.79380901   183.64073305
 C     11   2   1     2.740161853007   116.62805427   182.67205691
 H     47  11   2     1.755902722786   120.06044732     1.83307936
 C     29   7   1     2.723610093500   116.62033418   180.93960914
 H     49  29   7     1.757670248839   119.67006485     2.98097142
 C     38  30  28     2.543801341040   112.98730638   181.18275057
 H     51  38  30     1.755338897464   119.50789820   358.63598635
 C     23   8   6     2.826649091662   146.78991006   175.86684792
 H     53  23   8     1.756803747342   121.02352935   180.03103541
 C     49  29   7     2.626096104828   120.38005534   183.10109340
 H     55  49  29     1.757072602906   118.74982249   178.02867222
 C     39  18   7     2.739579266205   120.75434121   184.30636149
 C     57  39  18     2.604321496777   118.87620204     7.92328758
 H     58  57  39     1.757758950778   120.87927992   172.37588688
 C     42  39  18     2.675349492593   121.84532253   178.74212739
 H     60  42  39     1.759414261399   120.31597244   178.72463734
 C     57  39  18     2.851166725224   112.80468827   180.52988594
 H     62  57  39     1.757797957084   119.15504058   183.81327097
 C     30  28   8     2.395261464671    92.84319287   181.69162449
 H     64  30  28     1.753412197255   119.55167378   181.65964897
 C     60  42  39     2.448215393247   120.06194419   358.94795296
 H     66  60  42     1.754529802266   118.91933437   176.37762638

---------------------
BASIS SET INFORMATION
---------------------
There are 4 groups of distinct atoms

 Group   1 Type Fe  : 17s11p7d1f contracted to 6s4p4d1f pattern {842111/6311/4111/1}
 Group   2 Type O   : 11s6p2d1f contracted to 5s3p2d1f pattern {62111/411/11/1}
 Group   3 Type C   : 11s6p2d1f contracted to 5s3p2d1f pattern {62111/411/11/1}
 Group   4 Type H   : 5s1p contracted to 3s1p pattern {311/1}

Atom   0Fe   basis set group =>   1
Atom   1O    basis set group =>   2
Atom   2O    basis set group =>   2
Atom   3O    basis set group =>   2
Atom   4O    basis set group =>   2
Atom   5O    basis set group =>   2
Atom   6O    basis set group =>   2
Atom   7C    basis set group =>   3
Atom   8C    basis set group =>   3
Atom   9C    basis set group =>   3
Atom  10C    basis set group =>   3
Atom  11C    basis set group =>   3
Atom  12H    basis set group =>   4
Atom  13C    basis set group =>   3
Atom  14C    basis set group =>   3
Atom  15C    basis set group =>   3
Atom  16C    basis set group =>   3
Atom  17C    basis set group =>   3
Atom  18C    basis set group =>   3
Atom  19C    basis set group =>   3
Atom  20H    basis set group =>   4
Atom  21C    basis set group =>   3
Atom  22C    basis set group =>   3
Atom  23C    basis set group =>   3
Atom  24H    basis set group =>   4
Atom  25C    basis set group =>   3
Atom  26H    basis set group =>   4
Atom  27C    basis set group =>   3
Atom  28C    basis set group =>   3
Atom  29C    basis set group =>   3
Atom  30H    basis set group =>   4
Atom  31C    basis set group =>   3
Atom  32H    basis set group =>   4
Atom  33C    basis set group =>   3
Atom  34H    basis set group =>   4
Atom  35C    basis set group =>   3
Atom  36H    basis set group =>   4
Atom  37C    basis set group =>   3
Atom  38C    basis set group =>   3
Atom  39C    basis set group =>   3
Atom  40H    basis set group =>   4
Atom  41C    basis set group =>   3
Atom  42C    basis set group =>   3
Atom  43H    basis set group =>   4
Atom  44C    basis set group =>   3
Atom  45H    basis set group =>   4
Atom  46C    basis set group =>   3
Atom  47H    basis set group =>   4
Atom  48C    basis set group =>   3
Atom  49H    basis set group =>   4
Atom  50C    basis set group =>   3
Atom  51H    basis set group =>   4
Atom  52C    basis set group =>   3
Atom  53H    basis set group =>   4
Atom  54C    basis set group =>   3
Atom  55H    basis set group =>   4
Atom  56C    basis set group =>   3
Atom  57C    basis set group =>   3
Atom  58H    basis set group =>   4
Atom  59C    basis set group =>   3
Atom  60H    basis set group =>   4
Atom  61C    basis set group =>   3
Atom  62H    basis set group =>   4
Atom  63C    basis set group =>   3
Atom  64H    basis set group =>   4
Atom  65C    basis set group =>   3
Atom  66H    basis set group =>   4
---------------------------------
AUXILIARY/J BASIS SET INFORMATION
---------------------------------
There are 4 groups of distinct atoms

 Group   1 Type Fe  : 19s5p5d3f3g contracted to 8s5p5d2f3g pattern {121111111/11111/11111/21/111}
 Group   2 Type O   : 12s5p4d2f1g contracted to 6s4p3d1f1g pattern {711111/2111/211/2/1}
 Group   3 Type C   : 12s5p4d2f1g contracted to 6s4p3d1f1g pattern {711111/2111/211/2/1}
 Group   4 Type H   : 5s2p1d contracted to 3s1p1d pattern {311/2/1}

Atom   0Fe   basis set group =>   1
Atom   1O    basis set group =>   2
Atom   2O    basis set group =>   2
Atom   3O    basis set group =>   2
Atom   4O    basis set group =>   2
Atom   5O    basis set group =>   2
Atom   6O    basis set group =>   2
Atom   7C    basis set group =>   3
Atom   8C    basis set group =>   3
Atom   9C    basis set group =>   3
Atom  10C    basis set group =>   3
Atom  11C    basis set group =>   3
Atom  12H    basis set group =>   4
Atom  13C    basis set group =>   3
Atom  14C    basis set group =>   3
Atom  15C    basis set group =>   3
Atom  16C    basis set group =>   3
Atom  17C    basis set group =>   3
Atom  18C    basis set group =>   3
Atom  19C    basis set group =>   3
Atom  20H    basis set group =>   4
Atom  21C    basis set group =>   3
Atom  22C    basis set group =>   3
Atom  23C    basis set group =>   3
Atom  24H    basis set group =>   4
Atom  25C    basis set group =>   3
Atom  26H    basis set group =>   4
Atom  27C    basis set group =>   3
Atom  28C    basis set group =>   3
Atom  29C    basis set group =>   3
Atom  30H    basis set group =>   4
Atom  31C    basis set group =>   3
Atom  32H    basis set group =>   4
Atom  33C    basis set group =>   3
Atom  34H    basis set group =>   4
Atom  35C    basis set group =>   3
Atom  36H    basis set group =>   4
Atom  37C    basis set group =>   3
Atom  38C    basis set group =>   3
Atom  39C    basis set group =>   3
Atom  40H    basis set group =>   4
Atom  41C    basis set group =>   3
Atom  42C    basis set group =>   3
Atom  43H    basis set group =>   4
Atom  44C    basis set group =>   3
Atom  45H    basis set group =>   4
Atom  46C    basis set group =>   3
Atom  47H    basis set group =>   4
Atom  48C    basis set group =>   3
Atom  49H    basis set group =>   4
Atom  50C    basis set group =>   3
Atom  51H    basis set group =>   4
Atom  52C    basis set group =>   3
Atom  53H    basis set group =>   4
Atom  54C    basis set group =>   3
Atom  55H    basis set group =>   4
Atom  56C    basis set group =>   3
Atom  57C    basis set group =>   3
Atom  58H    basis set group =>   4
Atom  59C    basis set group =>   3
Atom  60H    basis set group =>   4
Atom  61C    basis set group =>   3
Atom  62H    basis set group =>   4
Atom  63C    basis set group =>   3
Atom  64H    basis set group =>   4
Atom  65C    basis set group =>   3
Atom  66H    basis set group =>   4


           ************************************************************
           *        Program running with 16 parallel MPI-processes    *
           *              working on a common directory               *
           ************************************************************
------------------------------------------------------------------------------
                             ORCA STARTUP CALCULATIONS
                           -- RI-GTO INTEGRALS CHOSEN --
------------------------------------------------------------------------------
------------------------------------------------------------------------------
                   ___                                                        
                  /   \      - P O W E R E D   B Y -                         
                 /     \                                                     
                 |  |  |   _    _      __       _____    __    __             
                 |  |  |  | |  | |    /  \     |  _  \  |  |  /  |          
                  \  \/   | |  | |   /    \    | | | |  |  | /  /          
                 / \  \   | |__| |  /  /\  \   | |_| |  |  |/  /          
                |  |  |   |  __  | /  /__\  \  |    /   |      \           
                |  |  |   | |  | | |   __   |  |    \   |  |\   \          
                \     /   | |  | | |  |  |  |  | |\  \  |  | \   \       
                 \___/    |_|  |_| |__|  |__|  |_| \__\ |__|  \__/        
                                                                              
                      - O R C A' S   B I G   F R I E N D -                    
                                      &                                       
                       - I N T E G R A L  F E E D E R -                       
                                                                              
 v1 FN, 2020, v2 2021, v3 2022-2024                                           
------------------------------------------------------------------------------


----------------------
SHARK INTEGRAL PACKAGE
----------------------

Number of atoms                             ...     67
Number of basis functions                   ...   1566
Number of shells                            ...    594
Maximum angular momentum                    ...      3
Integral batch strategy                     ... SHARK/LIBINT Hybrid
RI-J (if used) integral strategy            ... SPLIT-RIJ (Revised 2003 algorithm where possible)
Printlevel                                  ...      1
Contraction scheme used                     ... SEGMENTED contraction
Prescreening option                         ... SCHWARTZ
   Thresh                                   ... 2.500e-11
   Tcut                                     ... 2.500e-12
   Tpresel                                  ... 2.500e-12 
Coulomb Range Separation                    ... NOT USED
Exchange Range Separation                   ... NOT USED
Multipole approximations                    ... NOT USED
Finite Nucleus Model                        ... NOT USED
CABS basis                                  ... NOT available
Auxiliary Coulomb fitting basis             ... AVAILABLE
   # of basis functions in Aux-J            ...   2525
   # of shells in Aux-J                     ...    803
   Maximum angular momentum in Aux-J        ...      4
Auxiliary J/K fitting basis                 ... NOT available
Auxiliary Correlation fitting basis         ... NOT available
Auxiliary 'external' fitting basis          ... NOT available

Checking pre-screening integrals            ... done (  0.0 sec) Dimension = 594
Check shell pair data                       ... done (  0.0 sec)
Shell pair information
Shell pair cut-off parameter TPreSel        ...   2.5e-12
Total number of shell pairs                 ...    176715
Shell pairs after pre-screening             ...     87809
Total number of primitive shell pairs       ...    565565
Primitive shell pairs kept                  ...    172964
          la=0 lb=0:  20067 shell pairs
          la=1 lb=0:  25404 shell pairs
          la=1 lb=1:   7967 shell pairs
          la=2 lb=0:  12695 shell pairs
          la=2 lb=1:   8256 shell pairs
          la=2 lb=2:   2038 shell pairs
          la=3 lb=0:   5611 shell pairs
          la=3 lb=1:   3674 shell pairs
          la=3 lb=2:   1700 shell pairs
          la=3 lb=3:    397 shell pairs

Calculating one electron integrals          ... done (  0.1 sec)
done (  0.5 sec)
Calculating Nuclear repulsion               ... done (  0.0 sec) ENN=   6019.034781411372 Eh

Diagonalization of the overlap matrix:
Smallest eigenvalue                        ... 3.749e-06
Time for diagonalization                   ...    0.278 sec
Threshold for overlap eigenvalues          ... 1.000e-07
Number of eigenvalues below threshold      ... 0
Time for construction of square roots      ...    0.351 sec
Total time needed                          ...    0.664 sec

-------------------
DFT GRID GENERATION
-------------------

General Integration Accuracy     IntAcc      ... 4.959
Radial Grid Type                 RadialGrid  ... OptM3 with GC (2021)
Angular Grid (max. ang.)         AngularGrid ... 6 (Lebedev-590)
Angular grid pruning method      GridPruning ... 4 (adaptive)
Weight generation scheme         WeightScheme... mBecke (2022)
Basis function cutoff            BFCut       ... 1.0000e-11
Integration weight cutoff        WCut        ... 1.0000e-14
Partially contracted basis set               ... off
Rotationally invariant grid construction     ... off
Angular grids for H and He will be reduced by one unit
Core-polarized basis detected: some atoms will have their core
                               angular grid increased.

Total number of grid points                  ...   840419
Total number of batches                      ...    13167
Average number of points per batch           ...       63
Average number of grid points per atom       ...    12544

--------------------
COSX GRID GENERATION
--------------------

GRIDX 1
-------
General Integration Accuracy     IntAcc      ... 4.020
Radial Grid Type                 RadialGrid  ... OptM3 with GC (2021)
Angular Grid (max. ang.)         AngularGrid ... 2 (Lebedev-110)
Angular grid pruning method      GridPruning ... 4 (adaptive)
Weight generation scheme         WeightScheme... mBecke (2022)
Basis function cutoff            BFCut       ... 1.0000e-11
Integration weight cutoff        WCut        ... 1.0000e-14
Partially contracted basis set               ... on
Rotationally invariant grid construction     ... off
Angular grids for H and He will be reduced by one unit
Core-polarized basis detected: some atoms will have their core
                               angular grid increased.

Total number of grid points                  ...    98768
Total number of batches                      ...      806
Average number of points per batch           ...      122
Average number of grid points per atom       ...     1474
UseSFitting                                  ... on

GRIDX 2
-------
General Integration Accuracy     IntAcc      ... 4.338
Radial Grid Type                 RadialGrid  ... OptM3 with GC (2021)
Angular Grid (max. ang.)         AngularGrid ... 3 (Lebedev-194)
Angular grid pruning method      GridPruning ... 4 (adaptive)
Weight generation scheme         WeightScheme... mBecke (2022)
Basis function cutoff            BFCut       ... 1.0000e-11
Integration weight cutoff        WCut        ... 1.0000e-14
Partially contracted basis set               ... on
Rotationally invariant grid construction     ... off
Angular grids for H and He will be reduced by one unit
Core-polarized basis detected: some atoms will have their core
                               angular grid increased.

Total number of grid points                  ...   210114
Total number of batches                      ...     1672
Average number of points per batch           ...      125
Average number of grid points per atom       ...     3136
UseSFitting                                  ... on

GRIDX 3
-------
General Integration Accuracy     IntAcc      ... 4.871
Radial Grid Type                 RadialGrid  ... OptM3 with GC (2021)
Angular Grid (max. ang.)         AngularGrid ... 4 (Lebedev-302)
Angular grid pruning method      GridPruning ... 4 (adaptive)
Weight generation scheme         WeightScheme... mBecke (2022)
Basis function cutoff            BFCut       ... 1.0000e-11
Integration weight cutoff        WCut        ... 1.0000e-14
Partially contracted basis set               ... on
Rotationally invariant grid construction     ... off
Angular grids for H and He will be reduced by one unit
Core-polarized basis detected: some atoms will have their core
                               angular grid increased.

Total number of grid points                  ...   383883
Total number of batches                      ...     3035
Average number of points per batch           ...      126
Average number of grid points per atom       ...     5730
UseSFitting                                  ... on
Initializing property integral containers    ... done (  0.0 sec)

SHARK setup successfully completed in  18.4 seconds

Maximum memory used throughout the entire STARTUP-calculation: 271.7 MB


           ************************************************************
           *        Program running with 16 parallel MPI-processes    *
           *              working on a common directory               *
           ************************************************************
-------------------------------------------------------------------------------
                                 ORCA GUESS
                   Start orbitals & Density for SCF / CASSCF
-------------------------------------------------------------------------------

------------
SCF SETTINGS
------------
Hamiltonian:
 Density Functional     Method          .... DFT(GTOs)
 Exchange Functional    Exchange        .... PBE
   PBE kappa parameter   XKappa         ....  0.804000
   PBE mue parameter    XMuePBE         ....  0.219520
 Correlation Functional Correlation     .... PBE
   PBE beta parameter  CBetaPBE         ....  0.066725
[...]
197:   3216.56   0.001473    7.44  0.000143  ( 0.011831 -0.000779 -0.001518)
198:   3216.73   0.000209    1.05  0.000020  ( 0.002821  0.002763 -0.002155)
199:   3216.77   0.000170    0.86  0.000016  ( 0.001919  0.002861  0.002148)
200:   3216.79   0.000024    0.12  0.000002  (-0.001039  0.000346 -0.001042)

* The epsilon (eps) is given for a Dirac delta lineshape.
** The dipole moment derivative (T) already includes vibrational overlap.

The first frequency considered to be a vibration is 6
The total number of vibrations considered is 195


--------------------------
THERMOCHEMISTRY AT 298.15K
--------------------------

Temperature         ...   298.15 K
Pressure            ...     1.00 atm
Total Mass          ...   641.44 AMU
Quasi RRHO          ...     True
Cut-Off Frequency   ...     1.00 cm^-1

Throughout the following assumptions are being made:
  (1) The electronic state is orbitally nondegenerate
      but the spin degeneracy is treated
  (2) There are no thermally accessible electronically excited states
  (3) Hindered rotations indicated by low frequency modes are not
      treated as such but are treated as vibrations and this may
      cause some error
  (4) All equations used are the standard statistical mechanics
      equations for an ideal gas
  (5) All vibrations are strictly harmonic

freq.      10.28  E(vib)   ...       0.58 
freq.      10.39  E(vib)   ...       0.58 
freq.      15.70  E(vib)   ...       0.57 
freq.      28.63  E(vib)   ...       0.55 
freq.      28.80  E(vib)   ...       0.55 
freq.      32.53  E(vib)   ...       0.55 
freq.      76.34  E(vib)   ...       0.49 
freq.      78.59  E(vib)   ...       0.49 
freq.      78.63  E(vib)   ...       0.49 
freq.     126.77  E(vib)   ...       0.43 
freq.     130.11  E(vib)   ...       0.43 
freq.     130.39  E(vib)   ...       0.43 
freq.     143.30  E(vib)   ...       0.41 
freq.     151.94  E(vib)   ...       0.40 
freq.     152.08  E(vib)   ...       0.40 
freq.     161.85  E(vib)   ...       0.39 
freq.     181.24  E(vib)   ...       0.37 
freq.     181.59  E(vib)   ...       0.37 
freq.     189.74  E(vib)   ...       0.36 
freq.     192.08  E(vib)   ...       0.36 
freq.     192.17  E(vib)   ...       0.36 
freq.     212.30  E(vib)   ...       0.34 
freq.     212.40  E(vib)   ...       0.34 
freq.     218.37  E(vib)   ...       0.33 
freq.     242.61  E(vib)   ...       0.31 
freq.     275.96  E(vib)   ...       0.28 
freq.     276.21  E(vib)   ...       0.28 
freq.     305.39  E(vib)   ...       0.26 
freq.     317.41  E(vib)   ...       0.25 
freq.     317.44  E(vib)   ...       0.25 
freq.     384.52  E(vib)   ...       0.20 
freq.     384.59  E(vib)   ...       0.20 
freq.     388.50  E(vib)   ...       0.20 
freq.     388.53  E(vib)   ...       0.20 
freq.     388.57  E(vib)   ...       0.20 
freq.     392.44  E(vib)   ...       0.20 
freq.     412.34  E(vib)   ...       0.19 
freq.     412.40  E(vib)   ...       0.19 
freq.     412.82  E(vib)   ...       0.19 
freq.     427.51  E(vib)   ...       0.18 
freq.     427.56  E(vib)   ...       0.18 
freq.     434.56  E(vib)   ...       0.17 
freq.     466.99  E(vib)   ...       0.16 
freq.     467.08  E(vib)   ...       0.16 
freq.     471.30  E(vib)   ...       0.15 
freq.     491.71  E(vib)   ...       0.14 
freq.     491.97  E(vib)   ...       0.14 
freq.     492.04  E(vib)   ...       0.14 
freq.     498.54  E(vib)   ...       0.14 
freq.     498.55  E(vib)   ...       0.14 
freq.     501.10  E(vib)   ...       0.14 
freq.     551.88  E(vib)   ...       0.12 
freq.     551.92  E(vib)   ...       0.12 
freq.     552.37  E(vib)   ...       0.12 
freq.     558.94  E(vib)   ...       0.12 
freq.     558.98  E(vib)   ...       0.12 
freq.     563.87  E(vib)   ...       0.11 
freq.     566.08  E(vib)   ...       0.11 
freq.     566.20  E(vib)   ...       0.11 
freq.     566.46  E(vib)   ...       0.11 
freq.     575.15  E(vib)   ...       0.11 
freq.     575.25  E(vib)   ...       0.11 
freq.     575.29  E(vib)   ...       0.11 
freq.     668.78  E(vib)   ...       0.08 
freq.     668.83  E(vib)   ...       0.08 
freq.     673.13  E(vib)   ...       0.08 
freq.     720.74  E(vib)   ...       0.07 
freq.     721.10  E(vib)   ...       0.07 
freq.     721.15  E(vib)   ...       0.07 
freq.     731.46  E(vib)   ...       0.06 
freq.     731.56  E(vib)   ...       0.06 
freq.     732.18  E(vib)   ...       0.06 
freq.     765.91  E(vib)   ...       0.06 
freq.     765.95  E(vib)   ...       0.06 
freq.     768.19  E(vib)   ...       0.06 
freq.     768.23  E(vib)   ...       0.06 
freq.     770.54  E(vib)   ...       0.05 
freq.     771.97  E(vib)   ...       0.05 
freq.     773.78  E(vib)   ...       0.05 
freq.     773.79  E(vib)   ...       0.05 
freq.     773.94  E(vib)   ...       0.05 
freq.     822.67  E(vib)   ...       0.05 
freq.     822.69  E(vib)   ...       0.05 
freq.     823.22  E(vib)   ...       0.05 
freq.     856.52  E(vib)   ...       0.04 
freq.     856.56  E(vib)   ...       0.04 
freq.     857.42  E(vib)   ...       0.04 
freq.     876.82  E(vib)   ...       0.04 
freq.     876.99  E(vib)   ...       0.04 
freq.     877.11  E(vib)   ...       0.04 
freq.     886.20  E(vib)   ...       0.04 
freq.     887.45  E(vib)   ...       0.04 
freq.     887.53  E(vib)   ...       0.04 
freq.     931.70  E(vib)   ...       0.03 
freq.     931.78  E(vib)   ...       0.03 
freq.     931.86  E(vib)   ...       0.03 
freq.     957.32  E(vib)   ...       0.03 
freq.     957.35  E(vib)   ...       0.03 
freq.     957.40  E(vib)   ...       0.03 
freq.     991.89  E(vib)   ...       0.02 
freq.     991.92  E(vib)   ...       0.02 
freq.     992.50  E(vib)   ...       0.02 
freq.     996.59  E(vib)   ...       0.02 
freq.     996.62  E(vib)   ...       0.02 
freq.     996.64  E(vib)   ...       0.02 
freq.     997.32  E(vib)   ...       0.02 
freq.     997.38  E(vib)   ...       0.02 
freq.     997.57  E(vib)   ...       0.02 
freq.    1011.35  E(vib)   ...       0.02 
freq.    1011.40  E(vib)   ...       0.02 
freq.    1013.82  E(vib)   ...       0.02 
freq.    1114.67  E(vib)   ...       0.01 
freq.    1114.73  E(vib)   ...       0.01 
freq.    1114.95  E(vib)   ...       0.01 
freq.    1129.76  E(vib)   ...       0.01 
freq.    1129.81  E(vib)   ...       0.01 
freq.    1129.97  E(vib)   ...       0.01 
freq.    1147.69  E(vib)   ...       0.01 
freq.    1147.72  E(vib)   ...       0.01 
freq.    1148.00  E(vib)   ...       0.01 
freq.    1164.44  E(vib)   ...       0.01 
freq.    1164.47  E(vib)   ...       0.01 
freq.    1164.89  E(vib)   ...       0.01 
freq.    1202.07  E(vib)   ...       0.01 
freq.    1202.10  E(vib)   ...       0.01 
freq.    1202.15  E(vib)   ...       0.01 
freq.    1251.44  E(vib)   ...       0.01 
freq.    1251.52  E(vib)   ...       0.01 
freq.    1251.89  E(vib)   ...       0.01 
freq.    1273.90  E(vib)   ...       0.01 
freq.    1273.93  E(vib)   ...       0.01 
freq.    1273.98  E(vib)   ...       0.01 
freq.    1293.61  E(vib)   ...       0.01 
freq.    1293.69  E(vib)   ...       0.01 
freq.    1297.35  E(vib)   ...       0.01 
freq.    1391.80  E(vib)   ...       0.00 
freq.    1391.89  E(vib)   ...       0.00 
freq.    1394.97  E(vib)   ...       0.00 
freq.    1401.50  E(vib)   ...       0.00 
freq.    1401.51  E(vib)   ...       0.00 
freq.    1403.62  E(vib)   ...       0.00 
freq.    1407.65  E(vib)   ...       0.00 
freq.    1407.75  E(vib)   ...       0.00 
freq.    1409.95  E(vib)   ...       0.00 
freq.    1444.51  E(vib)   ...       0.00 
freq.    1444.58  E(vib)   ...       0.00 
freq.    1444.90  E(vib)   ...       0.00 
freq.    1460.12  E(vib)   ...       0.00 
freq.    1460.20  E(vib)   ...       0.00 
freq.    1460.35  E(vib)   ...       0.00 
freq.    1477.55  E(vib)   ...       0.00 
freq.    1477.58  E(vib)   ...       0.00 
freq.    1484.80  E(vib)   ...       0.00 
freq.    1503.41  E(vib)   ...       0.00 
freq.    1503.44  E(vib)   ...       0.00 
freq.    1503.77  E(vib)   ...       0.00 
freq.    1536.08  E(vib)   ...       0.00 
freq.    1536.15  E(vib)   ...       0.00 
freq.    1537.62  E(vib)   ...       0.00 
freq.    1591.77  E(vib)   ...       0.00 
freq.    1591.85  E(vib)   ...       0.00 
freq.    1608.73  E(vib)   ...       0.00 
freq.    1616.00  E(vib)   ...       0.00 
freq.    1616.01  E(vib)   ...       0.00 
freq.    1616.12  E(vib)   ...       0.00 
freq.    1650.85  E(vib)   ...       0.00 
freq.    1650.93  E(vib)   ...       0.00 
freq.    1661.87  E(vib)   ...       0.00 
freq.    1661.89  E(vib)   ...       0.00 
freq.    1662.39  E(vib)   ...       0.00 
freq.    1667.42  E(vib)   ...       0.00 
freq.    1690.88  E(vib)   ...       0.00 
freq.    1690.93  E(vib)   ...       0.00 
freq.    1705.28  E(vib)   ...       0.00 
freq.    3178.56  E(vib)   ...       0.00 
freq.    3178.67  E(vib)   ...       0.00 
freq.    3178.69  E(vib)   ...       0.00 
freq.    3178.77  E(vib)   ...       0.00 
freq.    3178.78  E(vib)   ...       0.00 
freq.    3178.82  E(vib)   ...       0.00 
freq.    3182.51  E(vib)   ...       0.00 
freq.    3182.60  E(vib)   ...       0.00 
freq.    3182.65  E(vib)   ...       0.00 
freq.    3187.17  E(vib)   ...       0.00 
freq.    3187.26  E(vib)   ...       0.00 
freq.    3187.35  E(vib)   ...       0.00 
freq.    3213.50  E(vib)   ...       0.00 
freq.    3213.52  E(vib)   ...       0.00 
freq.    3213.57  E(vib)   ...       0.00 
freq.    3216.44  E(vib)   ...       0.00 
freq.    3216.51  E(vib)   ...       0.00 
freq.    3216.56  E(vib)   ...       0.00 
freq.    3216.73  E(vib)   ...       0.00 
freq.    3216.77  E(vib)   ...       0.00 
freq.    3216.79  E(vib)   ...       0.00 

------------
INNER ENERGY
------------

The inner energy is: U= E(el) + E(ZPE) + E(vib) + E(rot) + E(trans)
    E(el)   - is the total energy from the electronic structure calculation
              = E(kin-el) + E(nuc-el) + E(el-el) + E(nuc-nuc)
    E(ZPE)  - the the zero temperature vibrational energy from the frequency calculation
    E(vib)  - the the finite temperature correction to E(ZPE) due to population
              of excited vibrational states
    E(rot)  - is the rotational thermal energy
    E(trans)- is the translational thermal energy

Summary of contributions to the inner energy U:
Electronic energy                ...  -3212.35824432 Eh
Zero point energy                ...      0.49525468 Eh     310.78 kcal/mol
Thermal vibrational correction   ...      0.03124992 Eh      19.61 kcal/mol
Thermal rotational correction    ...      0.00141627 Eh       0.89 kcal/mol
Thermal translational correction ...      0.00141627 Eh       0.89 kcal/mol
-----------------------------------------------------------------------
Total thermal energy                  -3211.82890718 Eh


Summary of corrections to the electronic energy:
(perhaps to be used in another calculation)
Total thermal correction                  0.03408246 Eh      21.39 kcal/mol
Non-thermal (ZPE) correction              0.49525468 Eh     310.78 kcal/mol
-----------------------------------------------------------------------
Total correction                          0.52933714 Eh     332.16 kcal/mol


--------
ENTHALPY
--------

The enthalpy is H = U + kB*T
                kB is Boltzmann's constant
Total thermal energy              ...  -3211.82890718 Eh 
Thermal Enthalpy correction       ...      0.00094421 Eh       0.59 kcal/mol
-----------------------------------------------------------------------
Total Enthalpy                    ...  -3211.82796297 Eh


Note: Only C1 symmetry has been detected, increase convergence thresholds 
      if your molecule has a higher symmetry. Symmetry factor of 1.0 is   
      used for the rotational entropy correction. 
 

Note: Rotational entropy computed according to Herzberg 
Infrared and Raman Spectra, Chapter V,1, Van Nostrand Reinhold, 1945 
Point Group:  C1, Symmetry Number:   1  
Rotational constants in cm-1:     0.002129     0.002110     0.001230 

Vibrational entropy computed according to the QRRHO of S. Grimme
Chem.Eur.J. 2012 18 9955 using a reference frequency of 100.0 cm-1


-------
ENTROPY
-------

The entropy contributions are T*S = T*(S(el)+S(vib)+S(rot)+S(trans))
     S(el)   - electronic entropy
     S(vib)  - vibrational entropy
     S(rot)  - rotational entropy
     S(trans)- translational entropy
The entropies will be listed as multiplied by the temperature to get
units of energy

Electronic entropy                ...      0.00169175 Eh      1.06 kcal/mol
Vibrational entropy               ...      0.05527849 Eh     34.69 kcal/mol
Rotational entropy                ...      0.01848727 Eh     11.60 kcal/mol
Translational entropy             ...      0.02150345 Eh     13.49 kcal/mol
-----------------------------------------------------------------------
Final entropy term                ...      0.09696096 Eh     60.84 kcal/mol

In case the symmetry of your molecule has not been determined correctly
or in case you have a reason to use a different symmetry number we print 
out the resulting rotational entropy values for sn=1,12:

 non-linear molecules -----------------------------------
|  sn= 1 | S(rot)=       0.01848727 Eh     11.60 kcal/mol|
|  sn= 2 | S(rot)=       0.01783282 Eh     11.19 kcal/mol|
|  sn= 3 | S(rot)=       0.01744999 Eh     10.95 kcal/mol|
|  sn= 4 | S(rot)=       0.01717836 Eh     10.78 kcal/mol|
|  sn= 5 | S(rot)=       0.01696767 Eh     10.65 kcal/mol|
|  sn= 6 | S(rot)=       0.01679553 Eh     10.54 kcal/mol|
|  sn= 7 | S(rot)=       0.01664998 Eh     10.45 kcal/mol|
|  sn= 8 | S(rot)=       0.01652391 Eh     10.37 kcal/mol|
|  sn= 9 | S(rot)=       0.01641270 Eh     10.30 kcal/mol|
|  sn=10 | S(rot)=       0.01631322 Eh     10.24 kcal/mol|
|  sn=11 | S(rot)=       0.01622323 Eh     10.18 kcal/mol|
|  sn=12 | S(rot)=       0.01614107 Eh     10.13 kcal/mol|
 linear molecules ---------------------------------------
|  Dinfh | S(rot)=       0.01165280 Eh      7.31 kcal/mol|
|  Cinfv | S(rot)=       0.01230726 Eh      7.72 kcal/mol|
 --------------------------------------------------------


-------------------
GIBBS FREE ENERGY
-------------------

The Gibbs free energy is G = H - T*S

Total enthalpy                    ...  -3211.82796297 Eh 
Total entropy correction          ...     -0.09696096 Eh    -60.84 kcal/mol
-----------------------------------------------------------------------
Final Gibbs free energy         ...  -3211.92492392 Eh

For completeness - the Gibbs free energy minus the electronic energy
G-E(el)                           ...      0.43332039 Eh    271.91 kcal/mol


Maximum memory used throughout the entire PROP-calculation: 1616.0 MB

--------------------------------
SUGGESTED CITATIONS FOR THIS RUN
--------------------------------

Below you find a list of papers that are relevant to this ORCA run
We neither can nor want to force you to cite these papers, but we appreciate if you do
You receive ORCA, which is the product of decades of hard work by many enthusiastic individuals, for free
The only thing we kindly ask in return is that you cite our papers,
We deeply appreciate it, if you show your appreciation for ORCA by not just citing the generic ORCA reference.

Please note that relegating all ORCA citations to the supporting information does *not* help us.
SI sections are not indexed - citations you put there will not count into any citation statistics
But we need these citations in order to attract the funding resources that allow us to do what we are doing

Therefore, if you are a happy ORCA user, please consider citing a few of the papers listed below in the main body of your paper

In addition to the list printed below, the program has created the file TOQZEH01-S2.bibtex that contains the list in bibtex format
You can import this file easily into all common literature databanks and citation aid programs


List of essential papers. We consider these as the minimum necessary citations

  1. Neese,F.
     Software update: the ORCA program system, version 5.0
     WIRES Comput. Molec. Sci., 2022 12(1)e1606
     doi.org/10.1002/wcms.1606

List of papers to cite with high priority. The work reported in these papers was absolutely
necessary for this run to complete.
Our perspective: the developers of density functionals and basis sets usually get cited in chemistry papers
Good! But without the algorithms to do something with them, the functionals or basis sets would not do anything.
Hence, in our opinion, the algorithm design and method developments papers are equally worthy of getting cited

  1. Neese,F.
     An improvement of the resolution of the identity approximation for the formation of the Coulomb matrix
     J. Comp. Chem., 2003 24(14)1740-1747
     doi.org/10.1002/jcc.10318
  2. Neese,F.; Wennmohs,F.; Hansen,A.; Becker,U.
     Efficient, approximate and parallel Hartree-Fock and hybrid DFT calculations. A 'chain-of-spheres' algorithm for the Hartree-Fock exchange
     Chem. Phys., 2009 356(1-3)98-109
     doi.org/10.1016/j.chemphys.2008.10.036
  3. Bykov,D.; Petrenko,T.; Izsak,R.; Kossmann,S.; Becker,U.; Valeev,E.; Neese,F.
     Efficient implementation of the analytic second derivatives of Hartree-Fock and hybrid DFT energies: a detailed analysis of different approximations
     Molec. Phys., 2015 113 1961-1977
     doi.org/10.1080/00268976.2015.1025114
  4. Helmich-Paris,B.; de Souza,B.; Neese,F.; Izsák,R.
     An improved chain of spheres for exchange algorithm
     J. Chem. Phys., 2021 155 104109
     doi.org/doi: 10.1063/5.0058766.
  5. Neese,F.
     The SHARK Integral Generation and Digestion System
     J. Comp. Chem., 2022  1-16
     doi.org/10.1002/jcc.26942

List of suggested additional citations. These are papers that are important in the 'surrounding' of 
of this run, or papers that preceded the highly important papers. If you like your results we are grateful for a citation.

  1. Izsak,R.; Neese,F.
     An overlap fitted chain of spheres exchange method
     J. Chem. Phys., 2011 135 144105
     doi.org/10.1063/1.3646921
  2. Izsak,R.; Hansen,A.; Neese,F.
     The resolution of identity and chain of spheres approximations for the LPNO-CCSD singles Fock term
     Molec. Phys., 2012 110 2413-2417
     doi.org/10.1080/00268976.2012.687466
  3. Neese,F.
     The ORCA program system
     WIRES Comput. Molec. Sci., 2012 2(1)73-78
     doi.org/10.1002/wcms.81
  4. Izsak,R.; Neese,F.; Klopper,W.
     Robust fitting techniques in the chain of spheres approximation to the Fock exchange: The role of the complementary space
     J. Chem. Phys., 2013 139 
     doi.org/10.1063/1.4819264
  5. Neese,F.
     Software update: the ORCA program system, version 4.0
     WIRES Comput. Molec. Sci., 2018 8(1)1-6
     doi.org/10.1002/wcms.1327
  6. Neese,F.; Wennmohs,F.; Becker,U.; Riplinger,C.
     The ORCA quantum chemistry program package
     J. Chem. Phys., 2020 152 Art. No. L224108
     doi.org/10.1063/5.0004608

List of optional additional citations

  1. Neese,F.
     Approximate second-order SCF convergence for spin unrestricted wavefunctions
     Chem. Phys. Lett., 2000 325(1-3)93-98
     doi.org/10.1016/s0009-2614(00)00662-x

Timings for individual modules:

Sum of individual times          ...    50564.951 sec (= 842.749 min)
Startup calculation              ...      509.880 sec (=   8.498 min)   1.0 %
SCF iterations                   ...    12759.454 sec (= 212.658 min)  25.2 %
Property integrals               ...    11924.582 sec (= 198.743 min)  23.6 %
SCF Response                     ...    19353.837 sec (= 322.564 min)  38.3 %
Property calculations            ...     2983.618 sec (=  49.727 min)   5.9 %
SCF Gradient evaluation          ...     3031.751 sec (=  50.529 min)   6.0 %
Geometry relaxation              ...        1.830 sec (=   0.030 min)   0.0 %
                             ****ORCA TERMINATED NORMALLY****
TOTAL RUN TIME: 0 days 14 hours 3 minutes 40 seconds 354 msec
