
                                 *****************
                                 * O   R   C   A *
                                 *****************

                                            #,                                       
                                            ###                                      
                                            ####                                     
                                            #####                                    
                                            ######                                   
                                           ########,                                 
                                     ,,################,,,,,                         
                               ,,#################################,,                 
                          ,,##########################################,,             
                       ,#########################################, ''#####,          
                    ,#############################################,,   '####,        
                  ,##################################################,,,,####,       
                ,###########''''           ''''###############################       
              ,#####''   ,,,,##########,,,,          '''####'''          '####       
            ,##' ,,,,###########################,,,                        '##       
           ' ,,###''''                  '''############,,,                           
         ,,##''                                '''############,,,,        ,,,,,,###''
      ,#''                                            '''#######################'''  
     '                                                          ''''####''''         
             ,#######,   #######,   ,#######,      ##                                
            ,#'     '#,  ##    ##  ,#'     '#,    #''#        ,####,   ,####,        
            ##       ##  ##   ,#'  ##            #'  '#       #'       #'  '#        
            ##       ##  #######   ##           ,######,      #####,   #    #        
            '#,     ,#'  ##    ##  '#,     ,#' ,#      #,     #,   #   #,  ,#        
             '#######'   ##     ##  '#######'  #'      '#     '####' # '####'        



                #########################################################
                #                        -***-                          #
                #          Department of theory and spectroscopy        #
                #                                                       #
                #                      Frank Neese                      #
                #                                                       #
                #     Directorship, Architecture, Infrastructure        #
                #                    SHARK, DRIVERS                     #
                #        Core code/Algorithms in most modules           #
                #                                                       #
                #        Max Planck Institute fuer Kohlenforschung      #
                #                Kaiser Wilhelm Platz 1                 #
                #                 D-45470 Muelheim/Ruhr                 #
                #                      Germany                          #
                #                                                       #
                #                  All rights reserved                  #
                #                        -***-                          #
                #########################################################


                         Program Version 6.0.1  -  RELEASE   -


 With contributions from (in alphabetic order):
[Max-Planck-Institut fuer Kohlenforschung]                               
  Daniel Aravena         : Magnetic Suceptibility                        
  Michael Atanasov       : Ab Initio Ligand Field Theory (pilot matlab implementation)
  Alexander A. Auer      : GIAO ZORA, VPT2 properties, NMR spectrum      
  Ute Becker             : All parallelization in ORCA, NUMFREQ, NUMCALC 
  Giovanni Bistoni       : ED, misc. LED, open-shell LED, HFLD           
  Martin Brehm           : Molecular dynamics                            
  Dmytro Bykov           : pre 5.0 version of the SCF Hessian            
  Marcos Casanova-Páez   : Triplet and SCS-CIS(D). UHF-(DLPNO)-IP/EA/STEOM-CCSD. UHF-CVS-IP/STEOM-CCSD   
  Vijay G. Chilkuri      : MRCI spin determinant printing, contributions to CSF-ICE 
  Pauline Colinet        : FMM embedding                                 
  Dipayan Datta          : RHF DLPNO-CCSD density                        
  Achintya Kumar Dutta   : EOM-CC, STEOM-CC                              
  Nicolas Foglia         : Exact transition moments, OPA infrastructure, MCD improvements    
  Dmitry Ganyushin       : Spin-Orbit,Spin-Spin,Magnetic field MRCI      
  Miquel Garcia-Rates    : C-PCM and meta-GGA Hessian, CCSD/C-PCM, Gaussian charge scheme 
  Tiago L. C. Gouveia    : GS-ROHF, GS-ROCIS                             
  Yang Guo               : DLPNO-NEVPT2, F12-NEVPT2, CIM, IAO-localization        
  Andreas Hansen         : Spin unrestricted coupled pair/coupled cluster methods 
  Ingolf Harden          : AUTO-CI MPn and infrastructure                
  Benjamin Helmich-Paris : MC-RPA, TRAH-(SCF,CASSCF), AVAS, COSX integrals, SCF dyn. polar. 
  Lee Huntington         : MR-EOM, pCC                                   
  Robert Izsak           : Overlap fitted RIJCOSX, COSX-SCS-MP3, EOM     
  Riya Kayal             : Wick's Theorem for AUTO-CI, AUTO-CI UHF-CCSDT 
  Emily Kempfer          : AUTO-CI, RHF CISDT and CCSDT                  
  Christian Kollmar      : KDIIS, OOCD, Brueckner-CCSD(T), CCSD density, CASPT2, CASPT2-K, improved NEVPT2 
  Axel Koslowski         : Symmetry handling                             
  Simone Kossmann        : meta-GGA functionals, TD-DFT gradient, OOMP2, (MP2 Hessian; deprecated post 5.0) 
  Lucas Lang             : DCDCAS                                        
  Marvin Lechner         : AUTO-CI (C++ implementation), FIC-MRCC        
  Spencer Leger          : CASSCF response                               
  Dagmar Lenk            : GEPOL surface, SMD, ORCA-2-JSON               
  Dimitrios Liakos       : Extrapolation schemes; Compound Job, initial MDCI parallelization 
  Dimitrios Manganas     : Further ROCIS development; embedding schemes. LFT, Crystal Embedding 
  Dimitrios Pantazis     : SARC Basis sets                               
  Anastasios Papadopoulos: AUTO-CI, single reference methods and gradients 
  Taras Petrenko         : pre 6.0 DFT Hessian and TD-DFT gradient, (ASA, deprecated), ECA, 1-Electron XAS/XES, NRVS 
  Peter Pinski           : DLPNO-MP2, DLPNO-MP2 Gradient                 
  Christoph Reimann      : Effective Core Potentials                     
  Marius Retegan         : Local ZFS, SOC                                
  Christoph Riplinger    : Optimizer, TS searches, QM/MM, DLPNO-CCSD(T), (RO)-DLPNO pert. Triples 
  Michael Roemelt        : Original ROCIS implementation                 
  Masaaki Saitow         : Open-shell DLPNO-CCSD energy and density      
  Barbara Sandhoefer     : DKH picture change effects                    
  Kantharuban Sivalingam : CASSCF convergence/infrastructure, NEVPT2 and variants, FIC-MRCI 
  Bernardo de Souza      : ESD, SOC TD-DFT                               
  Georgi L. Stoychev     : AutoAux, RI-MP2 NMR, DLPNO-MP2 response, X2C  
  Van Anh Tran           : RI-MP2 g-tensors                              
  Willem Van den Heuvel  : Paramagnetic NMR                              
  Zikuan Wang            : NOTCH, Electric field optimization            
  Frank Wennmohs         : Technical directorship and infrastructure     
  Hang Xu                : AUTO-CI-Response properties                   
                                                                         
[FACCTs GmbH]                                                            
  Markus Bursch, Miquel Garcia-Rates, Christoph Riplinger, Bernardo de Souza, Georgi L. Stoychev 
                                                                 
  APM, Basis sets (HGBS, AHGBS, def-TZVP (Ac-Lr), def2-XVPD (La-Lu)), CI-OPT, improved COSX, DLPNO-Multilevel,           
  DOCKER, DRACO, updates on ESD, GOAT, IRC, LR-CPCM, MBIS, meta-GGA TD-DFT gradient, ML-optimized integration grids, 
  MM, NACMEs, nearIR, NEB, NEB-TS, NL-DFT gradient (VV10), 2- and 3-layer-ONIOM, interface openCOSMO-RS, QMMM,   
  Crystal-QMMM, SF, symmetry and pop. for TD-DFT, r2SCAN hybrids, SOLVATOR                                   
                                                                         
[Other institutions]                                                     
  V. Asgeirsson          : NEB                                           
  Christoph Bannwarth    : sTDA-DFT, sTD-DFT, PBEh-3c, B97-3c, D3        
  Sebastian Ehlert       : rSCAN, r2SCAN, r2SCAN-3c, D4, dhf basis sets  
  Marvin Friede          : D4 for Fr, Ra, Ac-Lr                          
  Lars Goerigk           : TD-DFT with DH, B97 family of functionals     
  Stefan Grimme          : VdW corrections, initial TS optimization, DFT functionals, gCP, sTDA/sTD-DF 
  Waldemar Hujo          : DFT-NL                                        
  H. Jonsson             : NEB                                           
  Holger Kruse           : gCP                                           
  Marcel Mueller         : wB97X-3c, vDZP basis set                      
  Hagen Neugebauer       : wr2SCAN                                       
  Tobias Risthaus        : range-separated hybrid DFT                    
  Lukas Wittmann         : regularized MP2, r2SCAN double-hybrids, wr2SCAN        
                                                                         
We gratefully acknowledge several colleagues who have allowed us to      
interface, adapt or use parts of their codes:                            
  Ed Valeev, F. Pavosevic, A. Kumar             : LibInt (2-el integral package), F12 methods 
  Garnet Chan, S. Sharma, J. Yang, R. Olivares  : DMRG                   
  Ulf Ekstrom                                   : XCFun DFT Library      
  Mihaly Kallay                                 : mrcc  (arbitrary order and MRCC methods)
  Frank Weinhold                                : gennbo (NPA and NBO analysis)           
  Simon Mueller                                 : openCOSMO-RS                            
  Christopher J. Cramer and Donald G. Truhlar   : smd solvation model                     
  S Lehtola, MJT Oliveira, MAL Marques          : LibXC Library                           
  Liviu Ungur et al                             : ANISO software                          


 Your calculation uses the libint2 library for the computation of 2-el integrals
 For citations please refer to: http://libint.valeyev.net

 Your ORCA version has been built with support for libXC version: 6.2.2
 For citations please refer to: https://libxc.gitlab.io

 This ORCA versions uses:
   CBLAS   interface :  Fast vector & matrix operations
   LAPACKE interface :  Fast linear algebra routines
   SCALAPACK package :  Parallel linear algebra routines
   Shared memory     :  Shared parallel matrices
   BLAS/LAPACK       :  OpenBLAS 0.3.27  USE64BITINT DYNAMIC_ARCH NO_AFFINITY Cooperlake SINGLE_THREADED
        Core in use  :  Cooperlake
   Copyright (c) 2011-2014, The OpenBLAS Project


NOTE: MaxCore=3600 MB was set to SCF,MP2,MDCI,CIPSI,MRCI and CIS
      => If you want to overwrite this, your respective input block should be placed after the MaxCore statement
Warning: RI is on but no J-basis has been assigned. Assigning Def2/J (nothing to worry about!)
================================================================================

----- Orbital basis set information -----
Your calculation utilizes the basis: def2-TZVP
   F. Weigend and R. Ahlrichs, Phys. Chem. Chem. Phys. 7, 3297 (2005).

----- AuxJ basis set information -----
Your calculation utilizes the auxiliary basis: def2/J
   F. Weigend, Phys. Chem. Chem. Phys. 8, 1057 (2006).

================================================================================
                                        WARNINGS
                       Please study these warnings very carefully!
================================================================================


WARNING: your system is open-shell and RHF/RKS was chosen
  ===> : WILL SWITCH to UHF/UKS


WARNING: Geometry Optimization
  ===> : Switching off AutoStart
         For restart on a previous wavefunction, please use MOREAD

================================================================================
                                       INPUT FILE
================================================================================
NAME = UHIBAP-S2.inp
|  1> ! PBE0 def2-TZVP  Opt Freq DEFGRID3
|  2> 
|  3> %maxcore 3600
|  4> 
|  5> %pal
|  6>     nprocs 16
|  7> end
|  8> 
|  9> *xyz 0 6
| 10> Fe 1.7956 9.0072 0.4881
| 11> O 0.5847 8.8405 1.9078
| 12> O 3.2542 8.9818 1.6842
| 13> N 1.9106 10.9045 0.5917
| 14> N 3.0403 9.1785 -1.0678
| 15> H 3.8753 9.0204 -0.7431
| 16> N 1.8573 7.0732 0.3465
| 17> N -0.6865 9.4164 -1.323
| 18> C 0.0028 9.8259 2.5429
| 19> C -0.9684 9.5078 3.5011
| 20> H -1.163 8.6147 3.6705
| 21> C -1.6398 10.4831 4.1956
| 22> H -2.2853 10.2387 4.8179
| 23> C -1.3679 11.8291 3.9827
| 24> H -1.8259 12.4842 4.4585
| 25> C -0.4235 12.1725 3.0693
| 26> H -0.2326 13.0722 2.9343
| 27> C 0.2773 11.2046 2.3194
| 28> C 1.2351 11.6722 1.3718
| 29> H 1.3797 12.5884 1.3151
| 30> C 2.955 11.4613 -0.2765
| 31> H 3.8089 11.4607 0.1832
| 32> H 2.737 12.375 -0.5202
| 33> C 3.0257 10.6027 -1.5008
| 34> H 2.2577 10.7696 -2.0685
| 35> H 3.8289 10.8056 -2.0046
| 36> C 2.8684 8.2711 -2.2368
| 37> H 3.6163 8.3989 -2.8427
| 38> H 2.0613 8.5229 -2.7114
| 39> C 2.782 6.8121 -1.8795
| 40> H 3.6088 6.5491 -1.4447
| 41> H 2.7047 6.296 -2.6975
| 42> C 1.6205 6.4574 -0.9686
| 43> H 0.7903 6.7886 -1.3462
| 44> H 1.5516 5.4946 -0.8761
| 45> C 2.2916 6.3024 1.2762
| 46> H 2.1963 5.3854 1.1544
| 47> C 2.9115 6.7482 2.485
| 48> C 3.2093 5.8015 3.4869
| 49> H 2.893 4.9314 3.3974
| 50> C 3.9488 6.1277 4.5844
| 51> H 4.1141 5.4971 5.2482
| 52> C 4.4521 7.4138 4.6969
| 53> H 4.9631 7.6446 5.4383
| 54> C 4.2039 8.3513 3.7268
| 55> H 4.5648 9.204 3.8173
| 56> C 3.423 8.0582 2.6032
| 57> C 0.2578 9.2023 -0.7142
| 58> *
| 59> 
| 60>                          ****END OF INPUT****
================================================================================

                       *****************************
                       * Geometry Optimization Run *
                       *****************************

Geometry optimization settings:
Update method            Update   .... BFGS
Choice of coordinates    CoordSys .... (2022) Redundant Internals
Initial Hessian          InHess   .... Almloef's Model
Max. no of cycles        MaxIter  .... 144

Convergence Tolerances:
Energy Change            TolE     ....  5.0000e-06 Eh
Max. Gradient            TolMAXG  ....  3.0000e-04 Eh/bohr
RMS Gradient             TolRMSG  ....  1.0000e-04 Eh/bohr
Max. Displacement        TolMAXD  ....  4.0000e-03 bohr
RMS Displacement         TolRMSD  ....  2.0000e-03 bohr
Strict Convergence                .... False

------------------------------------------------------------------------------
                        ORCA OPTIMIZATION COORDINATE SETUP
------------------------------------------------------------------------------

The optimization will be done in redundant internal coordinates (2022)
Making redundant internal coordinates   ...  (2022 redundants) done
Evaluating the initial hessian          ...  (Almloef) done
Evaluating the coordinates              ...  done
Calculating the B-matrix                .... done
Calculating the G-matrix                .... done
Diagonalizing the G-matrix              .... done
Small eigenvalue found = 1.378e-02
Small eigenvalue found = 2.202e-02
Small eigenvalue found = 2.965e-02
The first mode is                       ....  195
The number of degrees of freedom        ....  138

    -----------------------------------------------------------------
                    Redundant Internal Coordinates


    -----------------------------------------------------------------
         Definition                    Initial Value    Approx d2E/dq
    -----------------------------------------------------------------
      1. B(O   1,Fe  0)                  1.8734         0.958896   
      2. B(O   2,Fe  0)                  1.8865         0.913892   
      3. B(N   3,Fe  0)                  1.9036         0.858181   
      4. B(N   4,Fe  0)                  1.9999         0.602566   
      5. B(H   5,N   4)                  0.9098         0.625363   
      6. B(N   6,Fe  0)                  1.9402         0.750340   
      7. B(C   8,O   1)                  1.3088         0.754077   
      8. B(C   9,C   8)                  1.4009         0.600238   
      9. B(H  10,C   9)                  0.9296         0.649082   
     10. B(C  11,C   9)                  1.3727         0.665782   
     11. B(H  12,C  11)                  0.9293         0.649767   
     12. B(C  13,C  11)                  1.3896         0.625729   
     13. B(H  14,C  13)                  0.9302         0.647657   
     14. B(C  15,C  13)                  1.3580         0.702784   
     15. B(H  16,C  15)                  0.9296         0.649165   
     16. B(C  17,C  15)                  1.4108         0.578875   
     17. B(C  17,C   8)                  1.4234         0.552616   
     18. B(C  18,C  17)                  1.4262         0.547045   
     19. B(C  18,N   3)                  1.2862         0.819480   
     20. B(H  19,C  18)                  0.9293         0.649912   
     21. B(C  20,N   3)                  1.4678         0.420416   
     22. B(C  20,Fe  0)                  2.8198         0.033088   
     23. B(H  21,C  20)                  0.9698         0.560053   
     24. B(H  22,C  20)                  0.9704         0.558685   
     25. B(C  23,C  20)                  1.4970         0.421674   
     26. B(C  23,N   4)                  1.4886         0.389495   
     27. B(H  24,C  23)                  0.9695         0.560591   
     28. B(H  25,C  23)                  0.9696         0.560432   
     29. B(C  26,N   4)                  1.4898         0.387847   
     30. B(H  27,C  26)                  0.9710         0.557586   
     31. B(H  28,C  26)                  0.9696         0.560489   
     32. B(C  29,C  26)                  1.5046         0.410117   
     33. B(H  30,C  29)                  0.9705         0.558625   
     34. B(H  31,C  29)                  0.9703         0.559006   
     35. B(C  32,C  29)                  1.5181         0.390266   
     36. B(C  32,N   6)                  1.4713         0.415088   
     37. B(H  33,C  32)                  0.9703         0.558954   
     38. B(H  34,C  32)                  0.9697         0.560247   
     39. B(C  35,N   6)                  1.2834         0.827874   
     40. B(H  36,C  35)                  0.9299         0.648296   
     41. B(C  37,C  35)                  1.4298         0.539890   
     42. B(C  38,C  37)                  1.4102         0.580061   
     43. B(H  39,C  38)                  0.9301         0.647882   
     44. B(C  40,C  38)                  1.3630         0.689943   
     45. B(H  41,C  40)                  0.9304         0.647267   
     46. B(C  42,C  40)                  1.3856         0.634866   
     47. B(H  43,C  42)                  0.9296         0.649248   
     48. B(C  44,C  42)                  1.3717         0.668206   
     49. B(H  45,C  44)                  0.9303         0.647362   
     50. B(C  46,C  44)                  1.3994         0.603693   
     51. B(C  46,C  37)                  1.4113         0.577819   
     52. B(C  46,O   2)                  1.3138         0.740346   
     53. B(C  47,N   7)                  1.1438         1.382743   
     54. B(C  47,Fe  0)                  1.9617         0.773911   
     55. A(O   2,Fe  0,C  47)          174.8875         0.614299   
     56. A(O   1,Fe  0,N   6)           89.2645         0.613266   
     57. A(N   4,Fe  0,N   6)           90.5047         0.560938   
     58. A(O   1,Fe  0,C  20)          123.2769         0.349177   
     59. A(N   3,Fe  0,N   6)          174.6086         0.600263   
     60. A(O   1,Fe  0,N   3)           94.9619         0.629446   
     61. A(O   2,Fe  0,N   4)           90.7570         0.582477   
     62. A(O   2,Fe  0,N   6)           90.4735         0.607593   
     63. A(N   6,Fe  0,C  20)          146.5819         0.335128   
     64. A(N   6,Fe  0,C  47)           94.5504         0.591370   
     65. A(N   4,Fe  0,C  47)           90.1463         0.567040   
     66. A(O   2,Fe  0,C  20)           82.2839         0.346362   
     67. A(O   1,Fe  0,O   2)           91.0357         0.637194   
     68. A(N   3,Fe  0,C  20)           28.6576         0.342724   
     69. A(C  20,Fe  0,C  47)           93.9894         0.338311   
     70. A(N   3,Fe  0,N   4)           85.3752         0.575502   
     71. A(O   1,Fe  0,C  47)           88.0868         0.620045   
     72. A(N   4,Fe  0,C  20)           57.2206         0.323208   
     73. A(O   2,Fe  0,N   3)           86.1126         0.623598   
     74. A(N   3,Fe  0,C  47)           88.9450         0.606874   
     75. A(Fe  0,O   1,C   8)          126.0234         0.542353   
     76. A(Fe  0,O   2,C  46)          123.5256         0.535586   
     77. A(Fe  0,N   3,C  18)          126.5979         0.539510   
     78. A(Fe  0,N   3,C  20)          112.8842         0.476346   
     79. A(C  18,N   3,C  20)          120.3994         0.420100   
     80. A(H   5,N   4,C  26)          106.2670         0.352584   
     81. A(Fe  0,N   4,C  26)          119.1103         0.440086   
     82. A(Fe  0,N   4,H   5)          106.1820         0.426155   
     83. A(H   5,N   4,C  23)          106.2051         0.352837   
     84. A(Fe  0,N   4,C  23)          107.5863         0.440423   
     85. A(C  23,N   4,C  26)          110.6919         0.363738   
     86. A(C  32,N   6,C  35)          116.7814         0.419908   
     87. A(Fe  0,N   6,C  35)          123.8197         0.527033   
     88. A(Fe  0,N   6,C  32)          118.5108         0.463667   
     89. A(C   9,C   8,C  17)          117.4530         0.422740   
     90. A(O   1,C   8,C  17)          124.5632         0.437536   
     91. A(O   1,C   8,C   9)          117.9805         0.444119   
     92. A(H  10,C   9,C  11)          119.2094         0.395458   
     93. A(C   8,C   9,C  11)          121.5875         0.437114   
     94. A(C   8,C   9,H  10)          119.2031         0.388353   
     95. A(H  12,C  11,C  13)          119.5534         0.391257   
     96. A(C   9,C  11,C  13)          120.9967         0.440406   
     97. A(C   9,C  11,H  12)          119.4499         0.395532   
     98. A(H  14,C  13,C  15)          120.5546         0.399079   
     99. A(C  11,C  13,C  15)          118.9516         0.444734   
    100. A(C  11,C  13,H  14)          120.4938         0.391034   
    101. A(C  13,C  15,C  17)          121.9715         0.438523   
    102. A(C  13,C  15,H  16)          119.0284         0.399242   
    103. A(H  16,C  15,C  17)          119.0001         0.385917   
    104. A(C  15,C  17,C  18)          117.5062         0.419256   
    105. A(C   8,C  17,C  18)          123.4638         0.415804   
    106. A(C   8,C  17,C  15)          119.0297         0.420014   
    107. A(N   3,C  18,C  17)          124.0571         0.443346   
    108. A(C  17,C  18,H  19)          117.9241         0.382216   
    109. A(N   3,C  18,H  19)          118.0188         0.407659   
    110. A(H  22,C  20,C  23)          110.1962         0.356137   
    111. A(H  21,C  20,C  23)          110.2263         0.356285   
    112. A(N   3,C  20,C  23)          107.4435         0.376234   
    113. A(Fe  0,C  20,C  23)           75.0499         0.277148   
    114. A(H  21,C  20,H  22)          108.5069         0.335372   
    115. A(N   3,C  20,H  22)          110.2337         0.353760   
    116. A(Fe  0,C  20,H  22)          142.6687         0.262426   
    117. A(N   3,C  20,H  21)          110.2361         0.353906   
    118. A(Fe  0,C  20,H  21)          103.4714         0.262522   
    119. A(Fe  0,C  20,N   3)           38.4583         0.275473   
    120. A(H  24,C  23,H  25)          108.4170         0.335600   
    121. A(C  20,C  23,H  25)          110.1232         0.356326   
    122. A(N   4,C  23,H  25)          110.0729         0.349405   
    123. A(C  20,C  23,H  24)          110.0433         0.356343   
    124. A(N   4,C  23,H  24)          110.0465         0.349422   
    125. A(N   4,C  23,C  20)          108.1372         0.371310   
    126. A(N   4,C  26,H  28)          108.7818         0.349162   
    127. A(N   4,C  26,H  27)          108.6992         0.348856   
    128. A(H  28,C  26,C  29)          108.6795         0.354656   
    129. A(H  27,C  26,C  29)          108.6658         0.354344   
    130. A(N   4,C  26,C  29)          114.2619         0.369271   
    131. A(H  27,C  26,H  28)          107.5508         0.335306   
    132. A(H  31,C  29,C  32)          108.7004         0.351532   
    133. A(H  30,C  29,C  32)          108.6438         0.351491   
    134. A(C  26,C  29,C  32)          114.3929         0.371994   
    135. A(H  30,C  29,H  31)          107.5439         0.335262   
    136. A(C  26,C  29,H  31)          108.6725         0.354497   
    137. A(C  26,C  29,H  30)          108.6787         0.354456   
    138. A(H  33,C  32,H  34)          108.3752         0.335418   
    139. A(C  29,C  32,H  34)          110.0957         0.351664   
    140. A(N   6,C  32,H  34)          109.9828         0.353164   
    141. A(C  29,C  32,H  33)          109.9602         0.351526   
    142. A(N   6,C  32,H  33)          110.0401         0.353026   
    143. A(N   6,C  32,C  29)          108.3843         0.370432   
    144. A(H  36,C  35,C  37)          117.5566         0.381179   
    145. A(N   6,C  35,C  37)          124.8836         0.443108   
    146. A(N   6,C  35,H  36)          117.5599         0.408215   
    147. A(C  38,C  37,C  46)          119.1499         0.423527   
    148. A(C  35,C  37,C  46)          121.1565         0.418137   
    149. A(C  35,C  37,C  38)          118.8751         0.418426   
    150. A(H  39,C  38,C  40)          119.0690         0.397811   
    151. A(C  37,C  38,C  40)          121.7339         0.437228   
    152. A(C  37,C  38,H  39)          119.1971         0.385921   
    153. A(H  41,C  40,C  42)          120.4398         0.391986   
    154. A(C  38,C  40,C  42)          118.9845         0.444417   
    155. A(C  38,C  40,H  41)          120.5757         0.397745   
    156. A(H  43,C  42,C  44)          119.5934         0.395728   
    157. A(C  40,C  42,C  44)          120.7444         0.441851   
    158. A(C  40,C  42,H  43)          119.6621         0.392195   
    159. A(H  45,C  44,C  46)          119.1146         0.388563   
    160. A(C  42,C  44,C  46)          121.7138         0.437853   
    161. A(C  42,C  44,H  45)          119.1716         0.395526   
    162. A(C  37,C  46,C  44)          117.6409         0.426564   
    163. A(O   2,C  46,C  44)          119.0850         0.443105   
    164. A(O   2,C  46,C  37)          123.1884         0.439611   
    165. A(Fe  0,C  47,N   7)          172.7629         0.587321   
    166. D(C   8,O   1,Fe  0,N   3)      6.3358         0.006401   
    167. D(C   8,O   1,Fe  0,N   6)   -177.0164         0.006401   
    168. D(C   8,O   1,Fe  0,C  20)     11.0783         0.006401   
    169. D(C   8,O   1,Fe  0,C  47)    -82.4384         0.006401   
    170. D(C   8,O   1,Fe  0,O   2)     92.5232         0.006401   
    171. D(C  46,O   2,Fe  0,C  20)    174.8962         0.005942   
    172. D(C  46,O   2,Fe  0,N   6)    -37.8358         0.005942   
    173. D(C  46,O   2,Fe  0,O   1)     51.4372         0.005942   
    174. D(C  46,O   2,Fe  0,N   4)   -128.3468         0.005942   
    175. D(C  46,O   2,Fe  0,N   3)    146.3407         0.005942   
    176. D(C  46,O   2,Fe  0,C  47)    131.4960         0.005942   
    177. D(C  20,N   3,Fe  0,O   2)     81.0092         0.005649   
    178. D(C  18,N   3,Fe  0,C  20)   -176.0208         0.005649   
    179. D(C  18,N   3,Fe  0,O   1)     -4.3077         0.005649   
    180. D(C  20,N   3,Fe  0,O   1)    171.7131         0.005649   
    181. D(C  18,N   3,Fe  0,N   6)   -145.8245         0.005649   
    182. D(C  18,N   3,Fe  0,C  47)     83.6800         0.005649   
    183. D(C  18,N   3,Fe  0,O   2)    -95.0116         0.005649   
    184. D(C  18,N   3,Fe  0,N   4)    173.9122         0.005649   
    185. D(C  23,N   4,O   1,C   8)     -9.2421         0.001500   
    186. D(C  23,N   4,Fe  0,C  47)     72.8008         0.003641   
    187. D(C  23,N   4,Fe  0,C  20)    -21.8512         0.003641   
    188. D(H   5,N   4,Fe  0,C  20)     91.5279         0.003641   
    189. D(C  23,N   4,Fe  0,N   3)    -16.1289         0.003641   
    190. D(H   5,N   4,Fe  0,C  47)   -173.8201         0.003641   
    191. D(C  23,N   4,Fe  0,N   6)    167.3527         0.003641   
    192. D(H   5,N   4,Fe  0,N   6)    -79.2683         0.003641   
    193. D(C  23,N   4,Fe  0,O   2)   -102.1671         0.003641   
    194. D(H   5,N   4,O   1,C   8)    104.4928         0.001500   
    195. D(C  26,N   4,O   1,C   8)   -135.5691         0.001500   
    196. D(H   5,N   4,Fe  0,O   2)     11.2120         0.003641   
    197. D(H   5,N   4,Fe  0,N   3)     97.2501         0.003641   
    198. D(C  35,N   6,Fe  0,O   1)    -63.0465         0.004658   
    199. D(C  32,N   6,Fe  0,C  47)     40.0824         0.004658   
    200. D(C  35,N   6,Fe  0,O   2)     27.9833         0.004658   
    201. D(C  32,N   6,Fe  0,N   3)    -90.2120         0.004658   
    202. D(C  32,N   6,Fe  0,C  20)    -64.2376         0.004658   
    203. D(C  32,N   6,Fe  0,O   1)    128.1045         0.004658   
    204. D(C  32,N   6,Fe  0,N   4)    -50.1045         0.004658   
    205. D(C  32,N   6,Fe  0,O   2)   -140.8658         0.004658   
    206. D(C  17,C   8,O   1,Fe  0)     -5.0202         0.043238   
    207. D(C   9,C   8,O   1,Fe  0)    174.3070         0.043238   
    208. D(C  11,C   9,C   8,C  17)      0.4091         0.024838   
    209. D(H  10,C   9,C   8,O   1)      1.0169         0.024838   
    210. D(C  11,C   9,C   8,O   1)   -178.9666         0.024838   
    211. D(H  10,C   9,C   8,C  17)   -179.6074         0.024838   
    212. D(C  13,C  11,C   9,C   8)     -0.7368         0.030971   
    213. D(H  12,C  11,C   9,H  10)     -0.6696         0.030971   
    214. D(H  12,C  11,C   9,C   8)    179.3139         0.030971   
    215. D(C  13,C  11,C   9,H  10)    179.2797         0.030971   
    216. D(C  15,C  13,C  11,H  12)   -179.9180         0.027124   
    217. D(C  15,C  13,C  11,C   9)      0.1328         0.027124   
    218. D(H  14,C  13,C  11,H  12)      0.0740         0.027124   
    219. D(H  14,C  13,C  11,C   9)   -179.8752         0.027124   
    220. D(C  17,C  15,C  13,H  14)   -179.2063         0.034809   
    221. D(C  17,C  15,C  13,C  11)      0.7857         0.034809   
    222. D(H  16,C  15,C  13,H  14)      0.8274         0.034809   
    223. D(H  16,C  15,C  13,C  11)   -179.1806         0.034809   
    224. D(C  18,C  17,C   8,C   9)   -179.7182         0.020898   
    225. D(C  18,C  17,C   8,O   1)     -0.3878         0.020898   
    226. D(C   8,C  17,C  15,C  13)     -1.0934         0.023018   
    227. D(C  15,C  17,C   8,C   9)      0.4767         0.020898   
    228. D(C  15,C  17,C   8,O   1)    179.8072         0.020898   
    229. D(C  18,C  17,C  15,H  16)     -0.9437         0.023018   
    230. D(C  18,C  17,C  15,C  13)    179.0899         0.023018   
    231. D(C   8,C  17,C  15,H  16)    178.8729         0.023018   
    232. D(H  19,C  18,C  17,C  15)      2.4465         0.020465   
    233. D(H  19,C  18,C  17,C   8)   -177.3613         0.020465   
    234. D(N   3,C  18,C  17,C  15)   -177.5642         0.020465   
    235. D(N   3,C  18,C  17,C   8)      2.6279         0.020465   
    236. D(H  19,C  18,N   3,C  20)      5.0136         0.057597   
    237. D(H  19,C  18,N   3,Fe  0)   -179.2373         0.057597   
    238. D(C  17,C  18,N   3,C  20)   -174.9757         0.057597   
    239. D(C  17,C  18,N   3,Fe  0)      0.7735         0.057597   
    240. D(C  23,C  20,N   3,Fe  0)     33.8600         0.016144   
    241. D(H  22,C  20,N   3,C  18)    -29.7444         0.016144   
    242. D(H  22,C  20,N   3,Fe  0)    153.9590         0.016144   
    243. D(H  21,C  20,N   3,Fe  0)    -86.2769         0.016144   
    244. D(Fe  0,C  20,N   3,C  18)    176.2965         0.016144   
    245. D(H  21,C  20,Fe  0,N   6)    -69.3973         0.001508   
    246. D(H  21,C  20,Fe  0,N   4)    -86.2798         0.001508   
    247. D(H  21,C  20,Fe  0,N   3)    105.6803         0.001508   
    248. D(H  21,C  20,Fe  0,O   2)      9.6383         0.001508   
    249. D(H  21,C  20,Fe  0,O   1)     95.7906         0.001508   
    250. D(N   3,C  20,Fe  0,C  47)     80.4392         0.001508   
    251. D(H  21,C  20,N   3,C  18)     90.0196         0.016144   
    252. D(N   3,C  20,Fe  0,N   6)   -175.0775         0.001508   
    253. D(N   3,C  20,Fe  0,N   4)    168.0399         0.001508   
    254. D(N   3,C  20,Fe  0,O   2)    -96.0420         0.001508   
    255. D(N   3,C  20,Fe  0,O   1)     -9.8897         0.001508   
    256. D(H  24,C  23,C  20,H  21)   -166.3690         0.014939   
    257. D(H  24,C  23,C  20,Fe  0)     94.5062         0.014939   
    258. D(N   4,C  23,C  20,H  22)   -166.8645         0.014939   
    259. D(N   4,C  23,C  20,H  21)     73.4015         0.014939   
    260. D(N   4,C  23,C  20,N   3)    -46.7417         0.014939   
    261. D(N   4,C  23,C  20,Fe  0)    -25.7233         0.014939   
    262. D(H  25,C  23,N   4,Fe  0)    158.6753         0.013876   
    263. D(H  24,C  23,N   4,C  26)     49.8088         0.013876   
    264. D(H  24,C  23,N   4,H   5)    164.7438         0.013876   
    265. D(H  24,C  23,N   4,Fe  0)    -81.8927         0.013876   
    266. D(C  20,C  23,N   4,C  26)    170.0363         0.013876   
    267. D(H  24,C  23,C  20,N   3)     73.4879         0.014939   
    268. D(C  20,C  23,N   4,H   5)    -75.0287         0.013876   
    269. D(C  20,C  23,N   4,Fe  0)     38.3348         0.013876   
    270. D(H  28,C  26,N   4,C  23)    -54.6228         0.013762   
    271. D(H  28,C  26,N   4,H   5)   -169.5189         0.013762   
    272. D(H  28,C  26,N   4,Fe  0)     70.8269         0.013762   
    273. D(H  27,C  26,N   4,C  23)     62.2085         0.013762   
    274. D(H  27,C  26,N   4,H   5)    -52.6876         0.013762   
    275. D(C  29,C  26,N   4,Fe  0)    -50.7967         0.013762   
    276. D(H  27,C  26,N   4,Fe  0)   -172.3417         0.013762   
    277. D(H  31,C  29,C  26,H  28)     60.3930         0.013323   
    278. D(H  31,C  29,C  26,H  27)    -56.3636         0.013323   
    279. D(H  31,C  29,C  26,N   4)   -177.9270         0.013323   
    280. D(H  30,C  29,C  26,H  28)    177.1446         0.013323   
    281. D(H  30,C  29,C  26,H  27)     60.3880         0.013323   
    282. D(H  30,C  29,C  26,N   4)    -61.1754         0.013323   
    283. D(H  33,C  32,C  29,C  26)     52.9932         0.012108   
    284. D(N   6,C  32,C  29,H  31)    171.0259         0.012108   
    285. D(N   6,C  32,C  29,H  30)     54.2782         0.012108   
    286. D(N   6,C  32,C  29,C  26)    -67.3310         0.012108   
    287. D(H  34,C  32,N   6,Fe  0)   -171.8132         0.014694   
    288. D(H  33,C  32,N   6,C  35)    137.8754         0.014694   
    289. D(H  33,C  32,N   6,Fe  0)    -52.4930         0.014694   
    290. D(C  29,C  32,N   6,C  35)   -101.8503         0.014694   
    291. D(H  33,C  32,C  29,H  30)    174.6023         0.012108   
    292. D(C  29,C  32,N   6,Fe  0)     67.7813         0.014694   
    293. D(H  33,C  32,C  29,H  31)    -68.6500         0.012108   
    294. D(C  37,C  35,N   6,C  32)    162.4604         0.058935   
    295. D(C  37,C  35,N   6,Fe  0)     -6.5658         0.058935   
    296. D(H  36,C  35,N   6,C  32)    -17.5135         0.058935   
    297. D(H  36,C  35,N   6,Fe  0)    173.4603         0.058935   
    298. D(C  46,C  37,C  35,H  36)    162.6286         0.019916   
    299. D(C  46,C  37,C  35,N   6)    -17.3453         0.019916   
    300. D(C  38,C  37,C  35,H  36)     -6.9228         0.019916   
    301. D(C  38,C  37,C  35,N   6)    173.1033         0.019916   
    302. D(C  40,C  38,C  37,C  46)      1.7620         0.023117   
    303. D(C  40,C  38,C  37,C  35)    171.5261         0.023117   
    304. D(H  39,C  38,C  37,C  46)   -178.2542         0.023117   
    305. D(H  39,C  38,C  37,C  35)     -8.4901         0.023117   
    306. D(C  42,C  40,C  38,H  39)    178.1307         0.033446   
    307. D(C  42,C  40,C  38,C  37)     -1.8855         0.033446   
    308. D(H  41,C  40,C  38,H  39)     -1.8356         0.033446   
    309. D(H  41,C  40,C  38,C  37)    178.1481         0.033446   
    310. D(C  44,C  42,C  40,H  41)   -179.5125         0.027974   
    311. D(C  44,C  42,C  40,C  38)      0.5211         0.027974   
    312. D(H  43,C  42,C  40,H  41)      0.4315         0.027974   
    313. D(H  43,C  42,C  40,C  38)   -179.5349         0.027974   
    314. D(C  46,C  44,C  42,H  43)   -178.9747         0.031214   
    315. D(C  46,C  44,C  42,C  40)      0.9693         0.031214   
    316. D(H  45,C  44,C  42,H  43)      1.1020         0.031214   
    317. D(H  45,C  44,C  42,C  40)   -178.9539         0.031214   
    318. D(C  37,C  46,C  44,H  45)    178.8580         0.025141   
    319. D(C  37,C  46,C  44,C  42)     -1.0653         0.025141   
    320. D(O   2,C  46,C  44,H  45)      2.1163         0.025141   
    321. D(O   2,C  46,C  44,C  42)   -177.8070         0.025141   
    322. D(C  44,C  46,C  37,C  38)     -0.2661         0.022930   
    323. D(C  44,C  46,C  37,C  35)   -169.7893         0.022930   
    324. D(O   2,C  46,C  37,C  38)    176.3312         0.022930   
    325. D(O   2,C  46,C  37,C  35)      6.8080         0.022930   
    326. D(C  44,C  46,O   2,Fe  0)   -156.7321         0.041513   
    327. D(C  37,C  46,O   2,Fe  0)     26.7172         0.041513   
    328. D(N   7,C  47,Fe  0,C  20)    -72.9732         0.004316   
    329. D(N   7,C  47,Fe  0,N   6)    139.3658         0.004316   
    330. D(N   7,C  47,Fe  0,N   4)   -130.1162         0.004316   
    331. D(N   7,C  47,Fe  0,N   3)    -44.7445         0.004316   
    332. D(N   7,C  47,Fe  0,O   2)    -29.9322         0.004316   
    333. D(N   7,C  47,Fe  0,O   1)     50.2564         0.004316   
    -----------------------------------------------------------------

Number of atoms                         .... 48
Number of degrees of freedom            .... 333


         *************************************************************
         *                GEOMETRY OPTIMIZATION CYCLE   1            *
         *************************************************************
---------------------------------
CARTESIAN COORDINATES (ANGSTROEM)
---------------------------------
  Fe     1.795600    9.007200    0.488100
  O      0.584700    8.840500    1.907800
  O      3.254200    8.981800    1.684200
  N      1.910600   10.904500    0.591700
  N      3.040300    9.178500   -1.067800
  H      3.875300    9.020400   -0.743100
  N      1.857300    7.073200    0.346500
  N     -0.686500    9.416400   -1.323000
  C      0.002800    9.825900    2.542900
  C     -0.968400    9.507800    3.501100
  H     -1.163000    8.614700    3.670500
  C     -1.639800   10.483100    4.195600
  H     -2.285300   10.238700    4.817900
  C     -1.367900   11.829100    3.982700
  H     -1.825900   12.484200    4.458500
  C     -0.423500   12.172500    3.069300
  H     -0.232600   13.072200    2.934300
  C      0.277300   11.204600    2.319400
  C      1.235100   11.672200    1.371800
  H      1.379700   12.588400    1.315100
  C      2.955000   11.461300   -0.276500
  H      3.808900   11.460700    0.183200
  H      2.737000   12.375000   -0.520200
  C      3.025700   10.602700   -1.500800
  H      2.257700   10.769600   -2.068500
  H      3.828900   10.805600   -2.004600
  C      2.868400    8.271100   -2.236800
  H      3.616300    8.398900   -2.842700
  H      2.061300    8.522900   -2.711400
  C      2.782000    6.812100   -1.879500
  H      3.608800    6.549100   -1.444700
  H      2.704700    6.296000   -2.697500
  C      1.620500    6.457400   -0.968600
  H      0.790300    6.788600   -1.346200
  H      1.551600    5.494600   -0.876100
  C      2.291600    6.302400    1.276200
  H      2.196300    5.385400    1.154400
  C      2.911500    6.748200    2.485000
  C      3.209300    5.801500    3.486900
  H      2.893000    4.931400    3.397400
  C      3.948800    6.127700    4.584400
  H      4.114100    5.497100    5.248200
  C      4.452100    7.413800    4.696900
  H      4.963100    7.644600    5.438300
  C      4.203900    8.351300    3.726800
  H      4.564800    9.204000    3.817300
  C      3.423000    8.058200    2.603200
  C      0.257800    9.202300   -0.714200

----------------------------
CARTESIAN COORDINATES (A.U.)
----------------------------
  NO LB      ZA    FRAG     MASS         X           Y           Z
   0 Fe   26.0000    0    55.850    3.393192   17.021141    0.922375
   1 O     8.0000    0    15.999    1.104923   16.706124    3.605220
   2 O     8.0000    0    15.999    6.149547   16.973142    3.182677
   3 N     7.0000    0    14.007    3.610511   20.606519    1.118151
   4 N     7.0000    0    14.007    5.745334   17.344851   -2.017850
   5 H     1.0000    0     1.008    7.323256   17.046086   -1.404255
   6 N     7.0000    0    14.007    3.509788   13.366411    0.654790
   7 N     7.0000    0    14.007   -1.297297   17.794417   -2.500108
   8 C     6.0000    0    12.011    0.005291   18.568260    4.805385
   9 C     6.0000    0    12.011   -1.830011   17.967138    6.616120
  10 H     1.0000    0     1.008   -2.197751   16.279424    6.936240
  11 C     6.0000    0    12.011   -3.098773   19.810188    7.928535
  12 H     1.0000    0     1.008   -4.318591   19.348339    9.104512
  13 C     6.0000    0    12.011   -2.584956   22.353759    7.526212
  14 H     1.0000    0     1.008   -3.450451   23.591719    8.425344
  15 C     6.0000    0    12.011   -0.800299   23.002691    5.800136
  16 H     1.0000    0     1.008   -0.439550   24.702878    5.545023
  17 C     6.0000    0    12.011    0.524021   21.173625    4.383031
  18 C     6.0000    0    12.011    2.334001   22.057261    2.592326
  19 H     1.0000    0     1.008    2.607255   23.788628    2.485179
  20 C     6.0000    0    12.011    5.584141   21.658718   -0.522509
  21 H     1.0000    0     1.008    7.197778   21.657584    0.346198
  22 H     1.0000    0     1.008    5.172180   23.385361   -0.983036
  23 C     6.0000    0    12.011    5.717744   20.036199   -2.836101
  24 H     1.0000    0     1.008    4.266435   20.351595   -3.908899
  25 H     1.0000    0     1.008    7.235572   20.419625   -3.788145
  26 C     6.0000    0    12.011    5.420490   15.630114   -4.226939
  27 H     1.0000    0     1.008    6.833817   15.871621   -5.371924
  28 H     1.0000    0     1.008    3.895292   16.105947   -5.123803
  29 C     6.0000    0    12.011    5.257218   12.873003   -3.551740
  30 H     1.0000    0     1.008    6.819644   12.376005   -2.730087
  31 H     1.0000    0     1.008    5.111142   11.897716   -5.097536
  32 C     6.0000    0    12.011    3.062301   12.202718   -1.830389
  33 H     1.0000    0     1.008    1.493451   12.828595   -2.543949
  34 H     1.0000    0     1.008    2.932099   10.383289   -1.655589
  35 C     6.0000    0    12.011    4.330496   11.909810    2.411668
  36 H     1.0000    0     1.008    4.150406   10.176931    2.181500
  37 C     6.0000    0    12.011    5.501938   12.752250    4.695969
  38 C     6.0000    0    12.011    6.064698   10.963246    6.589286
  39 H     1.0000    0     1.008    5.466978    9.318995    6.420156
  40 C     6.0000    0    12.011    7.462151   11.579675    8.663260
  41 H     1.0000    0     1.008    7.774522   10.388014    9.917661
  42 C     6.0000    0    12.011    8.413250   14.010052    8.875855
  43 H     1.0000    0     1.008    9.378900   14.446200   10.276898
  44 C     6.0000    0    12.011    7.944220   15.781670    7.042631
  45 H     1.0000    0     1.008    8.626222   17.393039    7.213652
  46 C     6.0000    0    12.011    6.468533   15.227791    4.919335
  47 C     6.0000    0    12.011    0.487171   17.389827   -1.349642

--------------------------------
INTERNAL COORDINATES (ANGSTROEM)
--------------------------------
 Fe     0   0   0     0.000000000000     0.00000000     0.00000000
 O      1   0   0     1.873396858650     0.00000000     0.00000000
 O      1   2   0     1.886481998324    91.03571005     0.00000000
 N      1   2   3     1.903603228091    94.96189629   273.81256478
 N      1   2   3     1.999861642714   178.19433172   173.12902713
 H      5   1   2     0.909753098373   106.18197428   198.08244964
 N      1   2   3     1.940158099228    89.26451668    90.46034301
 N      1   2   3     3.099733578874    86.38501174   187.09068693
 C      2   1   3     1.308805860317   126.02339456    92.52323338
 C      9   2   1     1.400915518509   117.98053058   174.30696214
 H     10   9   2     0.929619884684   119.20306659     1.01690941
 C     10   9   2     1.372704738828   121.58751354   181.03340809
 H     12  10   9     0.929332502391   119.44987579   179.31394323
 C     12  10   9     1.389594192561   120.99665904   359.26320807
 H     14  12  10     0.930218065832   120.49380064   180.12483367
 C     14  12  10     1.357981767182   118.95157441     0.13281145
 H     16  14  12     0.929584799790   119.02844470   180.81939970
 C     16  14  12     1.410780301819   121.97146109     0.78574930
 C      4   1   2     1.286164666752   126.59788843   355.69230775
 H     19   4   1     0.929272021531   118.01883292   180.76273224
 C      4   1   2     1.467844964565   112.88417769   171.71312207
 H     21   4   1     0.969778149888   110.23607701   273.72310058
 H     21   4   1     0.970443908735   110.23366551   153.95903168
 C      5   1   2     1.488639580288   107.58627569    84.70338799
 H     24   5   1     0.969516838430   110.04654145   278.10727105
 H     24   5   1     0.969594291444   110.07288832   158.67529078
 C      5   1   2     1.489793734045   119.11027846   317.78001404
 H     27   5   1     0.970979948300   108.69922611   187.65825982
 H     27   5   1     0.969566299951   108.78184347    70.82691991
 C     27   5   1     1.504596042132   114.26186607   309.20327249
 H     30  27   5     0.970473224772   108.67870814   298.82459249
 H     30  27   5     0.970287843890   108.67253655   182.07297761
 C      7   1   2     1.471316379981   118.51082397   128.10448552
 H     33   7   1     0.970312959823   110.04012712   307.50698500
 H     33   7   1     0.969684123826   109.98276616   188.18678280
 C      7   1   2     1.283390517341   123.81973886   296.95353012
 H     36   7   1     0.929949638421   117.55985749   173.46030007
 C     36   7   1     1.429759102087   124.88356808   353.43421263
 C     38  36   7     1.410223152554   118.87506718   173.10333362
 H     39  38  36     0.930123620816   119.19713837   351.50986326
 C     39  38  36     1.363001445340   121.73387582   171.52609740
 H     41  39  38     0.930382120421   120.57567377   178.14814981
 C     41  39  38     1.385647989209   118.98453037   358.11450595
 H     43  41  39     0.929550213813   119.66212941   180.46506322
 C     43  41  39     1.371715531734   120.74442554     0.52106551
 H     45  43  41     0.930342060750   119.17159072   181.04605178
 C      3   1   2     1.313807976837   123.52564557    51.43715869
 C      8   1   2     1.143756416375     4.57287117   230.35537942

---------------------------
INTERNAL COORDINATES (A.U.)
---------------------------
 Fe     0   0   0     0.000000000000     0.00000000     0.00000000
 O      1   0   0     3.540207002997     0.00000000     0.00000000
 O      1   2   0     3.564934333405    91.03571005     0.00000000
 N      1   2   3     3.597288768741    94.96189629   273.81256478
 N      1   2   3     3.779190810464   178.19433172   173.12902713
 H      5   1   2     1.719184205412   106.18197428   198.08244964
 N      1   2   3     3.666367464050    89.26451668    90.46034301
 N      1   2   3     5.857647552192    86.38501174   187.09068693
 C      2   1   3     2.473284638470   126.02339456    92.52323338
 C      9   2   1     2.647346666743   117.98053058   174.30696214
 H     10   9   2     1.756726990700   119.20306659     1.01690941
 C     10   9   2     2.594036019120   121.58751354   181.03340809
 H     12  10   9     1.756183916870   119.44987579   179.31394323
 C     12  10   9     2.625952461228   120.99665904   359.26320807
 H     14  12  10     1.757857389248   120.49380064   180.12483367
 C     14  12  10     2.566213634833   118.95157441     0.13281145
 H     16  14  12     1.756660689858   119.02844470   180.81939970
 C     16  14  12     2.665988405568   121.97146109     0.78574930
 C      4   1   2     2.430498983286   126.59788843   355.69230775
 H     19   4   1     1.756069624609   118.01883292   180.76273224
 C      4   1   2     2.773824990084   112.88417769   171.71312207
 H     21   4   1     1.832615113949   110.23607701   273.72310058
 H     21   4   1     1.833873215840   110.23366551   153.95903168
 C      5   1   2     2.813121118860   107.58627569    84.70338799
 H     24   5   1     1.832121306859   110.04654145   278.10727105
 H     24   5   1     1.832267671842   110.07288832   158.67529078
 C      5   1   2     2.815302153377   119.11027846   317.78001404
 H     27   5   1     1.834886183815   108.69922611   187.65825982
 H     27   5   1     1.832214775586   108.78184347    70.82691991
 C     27   5   1     2.843274461812   114.26186607   309.20327249
 H     30  27   5     1.833928615123   108.67870814   298.82459249
 H     30  27   5     1.833578296024   108.67253655   182.07297761
 C      7   1   2     2.780385014516   118.51082397   128.10448552
 H     33   7   1     1.833625758260   110.04012712   307.50698500
 H     33   7   1     1.832437430442   109.98276616   188.18678280
 C      7   1   2     2.425256600645   123.81973886   296.95353012
 H     36   7   1     1.757350134955   117.55985749   173.46030007
 C     36   7   1     2.701853140425   124.88356808   353.43421263
 C     38  36   7     2.664935546043   118.87506718   173.10333362
 H     39  38  36     1.757678914034   119.19713837   351.50986326
 C     39  38  36     2.575699451832   121.73387582   171.52609740
 H     41  39  38     1.758167407494   120.57567377   178.14814981
 C     41  39  38     2.618495217624   118.98453037   358.11450595
 H     43  41  39     1.756595331835   119.66212941   180.46506322
 C     43  41  39     2.592166688623   120.74442554     0.52106551
 H     45  43  41     1.758091705685   119.17159072   181.04605178
 C      3   1   2     2.482737268783   123.52564557    51.43715869
 C      8   1   2     2.161386390865     4.57287117   230.35537942

---------------------
BASIS SET INFORMATION
---------------------
There are 5 groups of distinct atoms

 Group   1 Type Fe  : 17s11p7d1f contracted to 6s4p4d1f pattern {842111/6311/4111/1}
 Group   2 Type O   : 11s6p2d1f contracted to 5s3p2d1f pattern {62111/411/11/1}
 Group   3 Type N   : 11s6p2d1f contracted to 5s3p2d1f pattern {62111/411/11/1}
 Group   4 Type H   : 5s1p contracted to 3s1p pattern {311/1}
 Group   5 Type C   : 11s6p2d1f contracted to 5s3p2d1f pattern {62111/411/11/1}

Atom   0Fe   basis set group =>   1
Atom   1O    basis set group =>   2
Atom   2O    basis set group =>   2
Atom   3N    basis set group =>   3
Atom   4N    basis set group =>   3
Atom   5H    basis set group =>   4
Atom   6N    basis set group =>   3
Atom   7N    basis set group =>   3
Atom   8C    basis set group =>   5
Atom   9C    basis set group =>   5
Atom  10H    basis set group =>   4
Atom  11C    basis set group =>   5
Atom  12H    basis set group =>   4
Atom  13C    basis set group =>   5
Atom  14H    basis set group =>   4
Atom  15C    basis set group =>   5
Atom  16H    basis set group =>   4
Atom  17C    basis set group =>   5
Atom  18C    basis set group =>   5
Atom  19H    basis set group =>   4
Atom  20C    basis set group =>   5
Atom  21H    basis set group =>   4
Atom  22H    basis set group =>   4
Atom  23C    basis set group =>   5
Atom  24H    basis set group =>   4
Atom  25H    basis set group =>   4
Atom  26C    basis set group =>   5
Atom  27H    basis set group =>   4
Atom  28H    basis set group =>   4
Atom  29C    basis set group =>   5
Atom  30H    basis set group =>   4
Atom  31H    basis set group =>   4
Atom  32C    basis set group =>   5
Atom  33H    basis set group =>   4
Atom  34H    basis set group =>   4
Atom  35C    basis set group =>   5
Atom  36H    basis set group =>   4
Atom  37C    basis set group =>   5
Atom  38C    basis set group =>   5
Atom  39H    basis set group =>   4
Atom  40C    basis set group =>   5
Atom  41H    basis set group =>   4
Atom  42C    basis set group =>   5
Atom  43H    basis set group =>   4
Atom  44C    basis set group =>   5
Atom  45H    basis set group =>   4
Atom  46C    basis set group =>   5
Atom  47C    basis set group =>   5
---------------------------------
AUXILIARY/J BASIS SET INFORMATION
---------------------------------
There are 5 groups of distinct atoms

 Group   1 Type Fe  : 19s5p5d3f3g contracted to 8s5p5d2f3g pattern {121111111/11111/11111/21/111}
 Group   2 Type O   : 12s5p4d2f1g contracted to 6s4p3d1f1g pattern {711111/2111/211/2/1}
 Group   3 Type N   : 12s5p4d2f1g contracted to 6s4p3d1f1g pattern {711111/2111/211/2/1}
 Group   4 Type H   : 5s2p1d contracted to 3s1p1d pattern {311/2/1}
 Group   5 Type C   : 12s5p4d2f1g contracted to 6s4p3d1f1g pattern {711111/2111/211/2/1}

Atom   0Fe   basis set group =>   1
Atom   1O    basis set group =>   2
Atom   2O    basis set group =>   2
Atom   3N    basis set group =>   3
Atom   4N    basis set group =>   3
Atom   5H    basis set group =>   4
Atom   6N    basis set group =>   3
Atom   7N    basis set group =>   3
Atom   8C    basis set group =>   5
Atom   9C    basis set group =>   5
Atom  10H    basis set group =>   4
Atom  11C    basis set group =>   5
Atom  12H    basis set group =>   4
Atom  13C    basis set group =>   5
Atom  14H    basis set group =>   4
Atom  15C    basis set group =>   5
Atom  16H    basis set group =>   4
Atom  17C    basis set group =>   5
Atom  18C    basis set group =>   5
Atom  19H    basis set group =>   4
Atom  20C    basis set group =>   5
Atom  21H    basis set group =>   4
Atom  22H    basis set group =>   4
Atom  23C    basis set group =>   5
Atom  24H    basis set group =>   4
Atom  25H    basis set group =>   4
Atom  26C    basis set group =>   5
Atom  27H    basis set group =>   4
Atom  28H    basis set group =>   4
Atom  29C    basis set group =>   5
Atom  30H    basis set group =>   4
Atom  31H    basis set group =>   4
Atom  32C    basis set group =>   5
Atom  33H    basis set group =>   4
Atom  34H    basis set group =>   4
Atom  35C    basis set group =>   5
Atom  36H    basis set group =>   4
Atom  37C    basis set group =>   5
Atom  38C    basis set group =>   5
Atom  39H    basis set group =>   4
Atom  40C    basis set group =>   5
Atom  41H    basis set group =>   4
Atom  42C    basis set group =>   5
Atom  43H    basis set group =>   4
Atom  44C    basis set group =>   5
Atom  45H    basis set group =>   4
Atom  46C    basis set group =>   5
Atom  47C    basis set group =>   5


           ************************************************************
           *        Program running with 16 parallel MPI-processes    *
           *              working on a common directory               *
           ************************************************************
------------------------------------------------------------------------------
                             ORCA STARTUP CALCULATIONS
                           -- RI-GTO INTEGRALS CHOSEN --
------------------------------------------------------------------------------
------------------------------------------------------------------------------
                   ___                                                        
                  /   \      - P O W E R E D   B Y -                         
                 /     \                                                     
                 |  |  |   _    _      __       _____    __    __             
                 |  |  |  | |  | |    /  \     |  _  \  |  |  /  |          
                  \  \/   | |  | |   /    \    | | | |  |  | /  /          
                 / \  \   | |__| |  /  /\  \   | |_| |  |  |/  /          
                |  |  |   |  __  | /  /__\  \  |    /   |      \           
                |  |  |   | |  | | |   __   |  |    \   |  |\   \          
                \     /   | |  | | |  |  |  |  | |\  \  |  | \   \       
                 \___/    |_|  |_| |__|  |__|  |_| \__\ |__|  \__/        
                                                                              
                      - O R C A' S   B I G   F R I E N D -                    
                                      &                                       
                       - I N T E G R A L  F E E D E R -                       
                                                                              
 v1 FN, 2020, v2 2021, v3 2022-2024                                           
------------------------------------------------------------------------------


----------------------
SHARK INTEGRAL PACKAGE
----------------------

Number of atoms                             ...     48
Number of basis functions                   ...    977
Number of shells                            ...    385
Maximum angular momentum                    ...      3
Integral batch strategy                     ... SHARK/LIBINT Hybrid
RI-J (if used) integral strategy            ... SPLIT-RIJ (Revised 2003 algorithm where possible)
Printlevel                                  ...      1
Contraction scheme used                     ... SEGMENTED contraction
Prescreening option                         ... SCHWARTZ
   Thresh                                   ... 2.500e-11
   Tcut                                     ... 2.500e-12
   Tpresel                                  ... 2.500e-12 
Coulomb Range Separation                    ... NOT USED
Exchange Range Separation                   ... NOT USED
Multipole approximations                    ... NOT USED
Finite Nucleus Model                        ... NOT USED
CABS basis                                  ... NOT available
Auxiliary Coulomb fitting basis             ... AVAILABLE
   # of basis functions in Aux-J            ...   1594
   # of shells in Aux-J                     ...    518
   Maximum angular momentum in Aux-J        ...      4
Auxiliary J/K fitting basis                 ... NOT available
Auxiliary Correlation fitting basis         ... NOT available
Auxiliary 'external' fitting basis          ... NOT available

Checking pre-screening integrals            ... done (  0.0 sec) Dimension = 385
Check shell pair data                       ... done (  0.0 sec)
Shell pair information
Shell pair cut-off parameter TPreSel        ...   2.5e-12
Total number of shell pairs                 ...     74305
Shell pairs after pre-screening             ...     53122
Total number of primitive shell pairs       ...    233597
Primitive shell pairs kept                  ...    108187
          la=0 lb=0:  13681 shell pairs
          la=1 lb=0:  15178 shell pairs
          la=1 lb=1:   4262 shell pairs
          la=2 lb=0:   7760 shell pairs
          la=2 lb=1:   4406 shell pairs
          la=2 lb=2:   1193 shell pairs
          la=3 lb=0:   3404 shell pairs
          la=3 lb=1:   1982 shell pairs
          la=3 lb=2:   1025 shell pairs
          la=3 lb=3:    231 shell pairs

Calculating one electron integrals          ... done (  0.0 sec)
done (  0.2 sec)
Calculating Nuclear repulsion               ... done (  0.0 sec) ENN=   3225.879825663755 Eh

Diagonalization of the overlap matrix:
Smallest eigenvalue                        ... 5.597e-06
Time for diagonalization                   ...    0.167 sec
Threshold for overlap eigenvalues          ... 1.000e-07
Number of eigenvalues below threshold      ... 0
Time for construction of square roots      ...    0.114 sec
Total time needed                          ...    0.304 sec

-------------------
DFT GRID GENERATION
-------------------

General Integration Accuracy     IntAcc      ... 4.959
Radial Grid Type                 RadialGrid  ... OptM3 with GC (2021)
Angular Grid (max. ang.)         AngularGrid ... 6 (Lebedev-590)
Angular grid pruning method      GridPruning ... 4 (adaptive)
Weight generation scheme         WeightScheme... mBecke (2022)
Basis function cutoff            BFCut       ... 1.0000e-11
Integration weight cutoff        WCut        ... 1.0000e-14
Partially contracted basis set               ... off
Rotationally invariant grid construction     ... off
Angular grids for H and He will be reduced by one unit
Core-polarized basis detected: some atoms will have their core
                               angular grid increased.

Total number of grid points                  ...   569701
Total number of batches                      ...     8926
Average number of points per batch           ...       63
Average number of grid points per atom       ...    11869

--------------------
COSX GRID GENERATION
--------------------

GRIDX 1
-------
General Integration Accuracy     IntAcc      ... 4.020
Radial Grid Type                 RadialGrid  ... OptM3 with GC (2021)
Angular Grid (max. ang.)         AngularGrid ... 2 (Lebedev-110)
Angular grid pruning method      GridPruning ... 4 (adaptive)
Weight generation scheme         WeightScheme... mBecke (2022)
Basis function cutoff            BFCut       ... 1.0000e-11
Integration weight cutoff        WCut        ... 1.0000e-14
Partially contracted basis set               ... on
Rotationally invariant grid construction     ... off
Angular grids for H and He will be reduced by one unit
Core-polarized basis detected: some atoms will have their core
                               angular grid increased.

Total number of grid points                  ...    65324
Total number of batches                      ...      535
Average number of points per batch           ...      122
Average number of grid points per atom       ...     1361
UseSFitting                                  ... on

GRIDX 2
-------
General Integration Accuracy     IntAcc      ... 4.338
Radial Grid Type                 RadialGrid  ... OptM3 with GC (2021)
Angular Grid (max. ang.)         AngularGrid ... 3 (Lebedev-194)
Angular grid pruning method      GridPruning ... 4 (adaptive)
Weight generation scheme         WeightScheme... mBecke (2022)
Basis function cutoff            BFCut       ... 1.0000e-11
Integration weight cutoff        WCut        ... 1.0000e-14
Partially contracted basis set               ... on
Rotationally invariant grid construction     ... off
Angular grids for H and He will be reduced by one unit
Core-polarized basis detected: some atoms will have their core
                               angular grid increased.

Total number of grid points                  ...   136711
Total number of batches                      ...     1095
Average number of points per batch           ...      124
Average number of grid points per atom       ...     2848
UseSFitting                                  ... on

GRIDX 3
-------
General Integration Accuracy     IntAcc      ... 4.871
Radial Grid Type                 RadialGrid  ... OptM3 with GC (2021)
Angular Grid (max. ang.)         AngularGrid ... 4 (Lebedev-302)
Angular grid pruning method      GridPruning ... 4 (adaptive)
Weight generation scheme         WeightScheme... mBecke (2022)
Basis function cutoff            BFCut       ... 1.0000e-11
Integration weight cutoff        WCut        ... 1.0000e-14
Partially contracted basis set               ... on
Rotationally invariant grid construction     ... off
Angular grids for H and He will be reduced by one unit
Core-polarized basis detected: some atoms will have their core
                               angular grid increased.

Total number of grid points                  ...   255794
Total number of batches                      ...     2022
Average number of points per batch           ...      126
Average number of grid points per atom       ...     5329
UseSFitting                                  ... on
Initializing property integral containers    ... done (  0.0 sec)

SHARK setup successfully completed in   9.7 seconds

Maximum memory used throughout the entire STARTUP-calculation: 182.4 MB


           ************************************************************
           *        Program running with 16 parallel MPI-processes    *
           *              working on a common directory               *
           ************************************************************
-------------------------------------------------------------------------------
                                 ORCA GUESS
                   Start orbitals & Density for SCF / CASSCF
-------------------------------------------------------------------------------

------------
SCF SETTINGS
------------
Hamiltonian:
 Density Functional     Method          .... DFT(GTOs)
 Exchange Functional    Exchange        .... PBE
   PBE kappa parameter   XKappa         ....  0.804000
   PBE mue parameter    XMuePBE         ....  0.219520
 Correlation Functional Correlation     .... PBE
   PBE beta parameter  CBetaPBE         ....  0.066725
 LDA part of GGA corr.  LDAOpt          .... PW91-LDA
 Gradients option       PostSCFGGA      .... off
 Hybrid DFT is turned on
   Fraction HF Exchange ScalHFX         ....  0.250000
   Scaling of DF-GGA-X  ScalDFX         ....  0.750000
   Scaling of DF-GGA-C  ScalDFC         ....  1.000000
   Scaling of DF-LDA-C  ScalLDAC        ....  1.000000
   Perturbative correction              ....  0.000000
   NL short-range parameter             ....  6.900000
 RI-approximation to the Coulomb term is turned on
   Number of AuxJ basis functions       .... 1594
   RIJ-COSX (HFX calculated with COS-X)).... on


General Settings:
 Integral files         IntName         .... UHIBAP-S2
 Hartree-Fock type      HFTyp           .... UHF
 Total Charge           Charge          ....    0
 Multiplicity           Mult            ....    6
 Number of Electrons    NEL             ....  211
 Basis Dimension        Dim             ....  977
 Nuclear Repulsion      ENuc            ....   3225.8798256638 Eh

Convergence Acceleration:
 AO-DIIS                CNVDIIS         .... on
   Start iteration      DIISMaxIt       ....    12
   Startup error        DIISStart       ....  0.200000
   # of expansion vecs  DIISMaxEq       ....     5
   Bias factor          DIISBfac        ....   1.050
   Max. coefficient     DIISMaxC        ....  10.000
 MO-DIIS                CNVKDIIS        .... off
 Trust-Rad. Augm. Hess. CNVTRAH         .... auto
   Auto Start mean grad. ratio tolernc. ....  1.125000
   Auto Start start iteration           ....    50
   Auto Start num. interpolation iter.  ....    10
   Max. Number of Micro iterations      ....    24
   Max. Number of Macro iterations      .... Maxiter - #DIIS iter
   Number of Davidson start vectors     ....     2
   Converg. threshold    (grad. norm)   ....   1.000e-05
   Grad. Scal. Fac. for Micro threshold ....   0.100
   Minimum threshold for Micro iter.    ....   1.000e-02
   NR start threshold (gradient norm)   ....   1.000e-04
   Initial trust radius                 ....   0.400
   Minimum AH scaling param. (alpha)    ....   1.000
   Maximum AH scaling param. (alpha)    .... 1000.000
   Quad. conv. algorithm                .... NR
   White noise on init. David. guess    .... on
   Maximum white noise                  ....   0.010
   Pseudo random numbers                .... off
   Inactive MOs                         .... canonical
   Orbital update algorithm             .... Taylor
   Preconditioner                       .... Diag
   Full preconditioner red. dimension   ....   250
 SOSCF                  CNVSOSCF        .... on
   Start iteration      SOSCFMaxIt      ....   150
   Startup grad/error   SOSCFStart      ....  0.003300
   Hessian update       SOSCFHessUp     .... L-BFGS
 Level Shifting         CNVShift        .... on
   Level shift para.    LevelShift      ....    0.2500
   Turn off err/grad.   ShiftErr        ....    0.0010
 Zerner damping         CNVZerner       .... off
 Static damping         CNVDamp         .... on
   Fraction old density DampFac         ....    0.7000
   Max. Damping (<1)    DampMax         ....    0.9800
   Min. Damping (>=0)   DampMin         ....    0.0000
   Turn off err/grad.   DampErr         ....    0.1000

SCF Procedure:
 Maximum # iterations   MaxIter         ....   125
 SCF integral mode      SCFMode         .... Direct
   Integral package                     .... SHARK and LIBINT hybrid scheme
 Reset frequency        DirectResetFreq ....    20
 Integral Threshold     Thresh          ....  2.500e-11 Eh
 Primitive CutOff       TCut            ....  2.500e-12 Eh

Convergence Tolerance:
 Convergence Check Mode ConvCheckMode   .... Total+1el-Energy
 Convergence forced     ConvForced      .... 0
 Energy Change          TolE            ....  1.000e-08 Eh
 1-El. energy change                    ....  1.000e-05 Eh
 Orbital Gradient       TolG            ....  1.000e-05
 Orbital Rotation angle TolX            ....  1.000e-05
 DIIS Error             TolErr          ....  5.000e-07

------------------------------
INITIAL GUESS: MODEL POTENTIAL
------------------------------
Loading Hartree-Fock densities                     ... done
Calculating cut-offs                               ... done
Initializing the effective Hamiltonian             ... done
Setting up the integral package (SHARK)            ... done
done (   0.4 sec)
Making the grid                                    ... done (   0.3 sec)
Mapping shells                                     ... done
Starting the XC term evaluation                    ... done (   0.3 sec)
  promolecular density results
     # of electrons  =    210.986876313
     EX              =   -205.835414677
     EC              =     -7.481565019
     EX+EC           =   -213.316979697
Transforming the Hamiltonian                       ... done (   0.1 sec)
done (   0.2 sec)
Back transforming the eigenvectors                 ... done (   0.1 sec)
done
                      ------------------
                      INITIAL GUESS DONE (   1.6 sec)
                      ------------------
             **** ENERGY FILE WAS UPDATED (UHIBAP-S2.en.tmp) ****
Finished Guess after   2.1 sec
Maximum memory used throughout the entire GUESS-calculation: 98.1 MB


           ************************************************************
           *        Program running with 16 parallel MPI-processes    *
           *              working on a common directory               *
           ************************************************************

-------------------------------------------------------------------------------------------
                                      ORCA LEAN-SCF
                              memory conserving SCF solver
-------------------------------------------------------------------------------------------

----------------------------------------D-I-I-S--------------------------------------------
Iteration    Energy (Eh)           Delta-E    RMSDP     MaxDP     DIISErr   Damp  Time(sec)
-------------------------------------------------------------------------------------------
               ***  Starting incremental Fock matrix formation  ***
    1    -2404.2286584840426258     0.00e+00  1.89e-03  7.73e-01  5.13e-01  0.700  28.0
Warning: op=0 Small HOMO/LUMO gap (  -0.788) - skipping pre-diagonalization
         LevelShift set to 0.888 Eh
         Will do a full diagonalization
    2    -2404.8576615625383965    -6.29e-01  9.74e-04  1.93e-01  1.97e-01  0.700  16.5
                               ***Turning on AO-DIIS***
    3    -2405.0002394954058218    -1.43e-01  8.44e-04  1.81e-01  1.64e-01  0.700  15.1
    4    -2405.2522757340825592    -2.52e-01  6.65e-04  1.36e-01  1.43e-01  0.700  14.7
    5    -2405.5453326082201784    -2.93e-01  4.49e-04  9.18e-02  1.07e-01  0.700  14.2
    6    -2405.7923401401171759    -2.47e-01  2.79e-04  5.80e-02  6.85e-02  0.700  14.0
    7    -2405.9746661130070606    -1.82e-01  6.75e-04  1.20e-01  4.54e-02  0.000  13.7
    8    -2406.3258612453769274    -3.51e-01  3.79e-04  6.45e-02  7.73e-02  0.000  14.5
    9    -2406.3569158782270279    -3.11e-02  3.52e-04  5.73e-02  6.75e-02  0.000  13.7
   10    -2406.3889780118038288    -3.21e-02  3.22e-04  4.62e-02  4.81e-02  0.000  13.6
   11    -2406.4165395001468823    -2.76e-02  2.70e-04  3.87e-02  2.34e-02  0.000  13.3
   12    -2406.4346823292739828    -1.81e-02  1.70e-04  2.57e-02  9.30e-03  0.000  13.3
   13    -2406.4450897305055150    -1.04e-02  1.37e-04  1.91e-02  8.05e-03  0.000  12.7
   14    -2406.4538788189988736    -8.79e-03  1.18e-04  1.55e-02  7.18e-03  0.000  12.7
   15    -2406.4613174336695920    -7.44e-03  9.72e-05  1.18e-02  6.48e-03  0.000  12.8
   16    -2406.4670491014544496    -5.73e-03  7.55e-05  8.20e-03  5.73e-03  0.000  12.4
   17    -2406.4713447482740776    -4.30e-03  7.18e-05  7.03e-03  4.64e-03  0.000  12.1
   18    -2406.4748788188239814    -3.53e-03  5.49e-05  5.17e-03  4.28e-03  0.000  12.0
   19    -2406.4775142805879113    -2.64e-03  5.08e-05  3.88e-03  3.44e-03  0.000  11.8
                              *** Initializing SOSCF ***
---------------------------------------S-O-S-C-F--------------------------------------
Iteration    Energy (Eh)           Delta-E    RMSDP     MaxDP     MaxGrad    Time(sec)
--------------------------------------------------------------------------------------
   20    -2406.4796235793223786    -2.11e-03  4.19e-05  3.49e-03  2.95e-03    13.0
               *** Restarting incremental Fock matrix formation ***
   21    -2406.4812610355434117    -1.64e-03  2.01e-04  1.08e-02  1.78e-02    27.8
   22    -2406.4861312948473824    -4.87e-03  1.33e-04  7.07e-03  4.81e-03    22.4
   23    -2406.4861705438320314    -3.92e-05  4.86e-05  7.41e-03  4.30e-03    21.6
   24    -2406.4867337703667545    -5.63e-04  6.04e-05  6.84e-03  2.34e-03    19.3
   25    -2406.4866997699496096     3.40e-05  3.09e-05  3.35e-03  1.60e-03    20.0
   26    -2406.4869068399889329    -2.07e-04  1.64e-05  1.23e-03  4.59e-04    18.7
   27    -2406.4868910525460706     1.58e-05  9.98e-06  9.60e-04  6.41e-04    17.5
   28    -2406.4869261543458379    -3.51e-05  4.72e-06  4.71e-04  1.31e-04    16.6
   29    -2406.4869248837671876     1.27e-06  2.50e-06  2.07e-04  1.78e-04    15.0
   30    -2406.4869276326776344    -2.75e-06  1.74e-06  1.06e-04  4.45e-05    13.8
   31    -2406.4869277252732900    -9.26e-08  1.79e-06  1.69e-04  3.59e-05    12.9
   32    -2406.4869278726869197    -1.47e-07  2.82e-06  2.35e-04  1.79e-05    12.0
   33    -2406.4869278407763886     3.19e-08  1.27e-06  1.00e-04  1.14e-05    12.5
   34    -2406.4869278894489071    -4.87e-08  1.99e-06  1.58e-04  5.61e-06    10.7
   35    -2406.4869279141589686    -2.47e-08  1.18e-06  1.27e-04  3.16e-06    10.7
   36    -2406.4869278675846545     4.66e-08  1.73e-06  1.90e-04  1.40e-06     9.8
                  *** Gradient check signals convergence ***

               *****************************************************
               *                     SUCCESS                       *
               *           SCF CONVERGED AFTER  36 CYCLES          *
               *****************************************************

 done (   43.590 sec)
Old exchange energy                            :    -52.519438551 Eh
New exchange energy                            :    -52.519434610 Eh
Exchange energy change after final integration :      0.000003941 Eh
Total energy after final integration           :  -2406.486923927 Eh
             **** ENERGY FILE WAS UPDATED (UHIBAP-S2.en.tmp) ****

----------------
TOTAL SCF ENERGY
----------------

Total Energy       :      -2406.48692392693602 Eh          -65483.83833 eV

Components:
Nuclear Repulsion  :       3225.87982566375513 Eh           87780.65274 eV
Electronic Energy  :      -5632.36675353133978 Eh         -153264.49118 eV
One Electron Energy:      -9721.78738921808690 Eh         -264543.28398 eV
Two Electron Energy:       4089.42063568674757 Eh          111278.79280 eV

Virial components:
Potential Energy   :      -4812.82721103394761 Eh         -130963.68648 eV
Kinetic Energy     :       2406.34028710701205 Eh           65479.84814 eV
Virial Ratio       :          2.00006093769061

DFT components:
N(Alpha)           :      107.999992102411 electrons
N(Beta)            :      102.999991525550 electrons
N(Total)           :      210.999983627961 electrons
E(X)               :     -157.121543895300 Eh       
E(C)               :       -7.435532935565 Eh       
E(XC)              :     -164.557076830865 Eh       

---------------
SCF CONVERGENCE
---------------

  Last Energy change         ...   -4.6574e-08  Tolerance :   1.0000e-08
  Last MAX-Density change    ...    1.9038e-04  Tolerance :   1.0000e-07
  Last RMS-Density change    ...    1.7271e-06  Tolerance :   5.0000e-09
  Last DIIS Error            ...    2.9506e-03  Tolerance :   5.0000e-07
  Last Orbital Gradient      ...    1.4001e-06  Tolerance :   1.0000e-05
  Last Orbital Rotation      ...    1.8909e-05  Tolerance :   1.0000e-05


----------------------
UHF SPIN CONTAMINATION
----------------------

Warning: in a DFT calculation there is little theoretical justification to 
         calculate <S**2> as in Hartree-Fock theory. We will do it anyways
         but you should keep in mind that the values have only limited relevance

Expectation value of <S**2>     :     8.760135
Ideal value S*(S+1) for S=2.5   :     8.750000
Deviation                       :     0.010135

----------------
ORBITAL ENERGIES
----------------
                 SPIN UP ORBITALS
  NO   OCC          E(Eh)            E(eV) 
   0   1.0000    -256.402639     -6977.0705 
   1   1.0000     -30.235081      -822.7384 
   2   1.0000     -26.053609      -708.9547 
   3   1.0000     -26.051585      -708.8997 
   4   1.0000     -26.051008      -708.8840 
   5   1.0000     -19.172667      -521.7148 
   6   1.0000     -19.167702      -521.5797 
   7   1.0000     -14.418644      -392.3513 
   8   1.0000     -14.399387      -391.8272 
   9   1.0000     -14.398441      -391.8015 
  10   1.0000     -14.306320      -389.2948 
  11   1.0000     -10.275620      -279.6138 
  12   1.0000     -10.271219      -279.4941 
  13   1.0000     -10.266172      -279.3567 
  14   1.0000     -10.266036      -279.3530 
  15   1.0000     -10.248906      -278.8869 
  16   1.0000     -10.245555      -278.7957 
  17   1.0000     -10.244908      -278.7781 
[...]
108:   1481.87   0.001516    7.66  0.000319  (-0.001929  0.007750  0.015985)
109:   1485.31   0.004231   21.38  0.000889  ( 0.008391 -0.026189 -0.011517)
110:   1490.94   0.023596  119.24  0.004939  (-0.021152  0.066178 -0.010574)
111:   1496.70   0.040674  205.55  0.008480  ( 0.024043 -0.088798 -0.004155)
112:   1500.08   0.008645   43.69  0.001798  (-0.006741  0.039006 -0.015217)
113:   1502.17   0.001686    8.52  0.000350  (-0.004002  0.005236  0.017517)
114:   1508.61   0.007098   35.87  0.001468  ( 0.013952  0.035190 -0.005941)
115:   1509.03   0.003728   18.84  0.000771  ( 0.004025  0.020816  0.017929)
116:   1592.08   0.021573  109.02  0.004228  (-0.040393 -0.010844 -0.049792)
117:   1595.09   0.019363   97.85  0.003788  (-0.040293 -0.008304  0.045778)
118:   1667.91   0.018363   92.80  0.003436  (-0.050669  0.027935 -0.009380)
119:   1670.00   0.018580   93.90  0.003472  ( 0.036190 -0.017667 -0.043013)
120:   1694.62   0.108400  547.81  0.019962  (-0.083514  0.064182 -0.094169)
121:   1711.77   0.094151  475.80  0.017164  (-0.075161  0.042231  0.098649)
122:   2252.56   0.000998    5.04  0.000138  ( 0.009280 -0.002735  0.006685)
123:   3002.37   0.011762   59.44  0.001223  (-0.014233 -0.003498  0.031745)
124:   3017.55   0.001767    8.93  0.000183  ( 0.002155  0.002057  0.013186)
125:   3021.60   0.009418   47.59  0.000973  ( 0.008786  0.028251  0.009866)
126:   3025.79   0.018103   91.49  0.001867  ( 0.026611  0.022377 -0.025655)
127:   3037.36   0.007732   39.08  0.000794  ( 0.018481 -0.014101 -0.015939)
128:   3049.10   0.009875   49.90  0.001011  (-0.002062  0.030405  0.009052)
129:   3059.07   0.007377   37.28  0.000753  ( 0.003559  0.026787 -0.004721)
130:   3067.32   0.004928   24.90  0.000501  (-0.000303  0.019968 -0.010127)
131:   3088.14   0.004231   21.38  0.000428  (-0.003274 -0.008691 -0.018476)
132:   3103.71   0.000973    4.92  0.000098  (-0.009352  0.003098  0.000868)
133:   3105.37   0.000661    3.34  0.000066  (-0.006798 -0.001988 -0.004028)
134:   3113.64   0.001500    7.58  0.000150  (-0.007969  0.002269 -0.009041)
135:   3173.67   0.001675    8.47  0.000165  (-0.000433  0.012786 -0.001033)
136:   3174.68   0.001658    8.38  0.000163  (-0.000956  0.012715 -0.000608)
137:   3183.58   0.001644    8.31  0.000161  ( 0.007175  0.003794  0.009763)
138:   3187.26   0.001704    8.61  0.000167  ( 0.009093  0.003482 -0.008490)
139:   3209.60   0.001719    8.69  0.000167  ( 0.004058  0.012201  0.001337)
140:   3214.65   0.001540    7.78  0.000150  (-0.001600  0.012122 -0.000159)
141:   3218.14   0.002672   13.50  0.000259  (-0.006802  0.007957 -0.012229)
142:   3220.25   0.002289   11.57  0.000222  (-0.010321  0.006149  0.008804)
143:   3496.41   0.001351    6.83  0.000121  ( 0.010453 -0.003055  0.001400)

* The epsilon (eps) is given for a Dirac delta lineshape.
** The dipole moment derivative (T) already includes vibrational overlap.

The first frequency considered to be a vibration is 6
The total number of vibrations considered is 138


--------------------------
THERMOCHEMISTRY AT 298.15K
--------------------------

Temperature         ...   298.15 K
Pressure            ...     1.00 atm
Total Mass          ...   405.26 AMU
Quasi RRHO          ...     True
Cut-Off Frequency   ...     1.00 cm^-1

Throughout the following assumptions are being made:
  (1) The electronic state is orbitally nondegenerate
      but the spin degeneracy is treated
  (2) There are no thermally accessible electronically excited states
  (3) Hindered rotations indicated by low frequency modes are not
      treated as such but are treated as vibrations and this may
      cause some error
  (4) All equations used are the standard statistical mechanics
      equations for an ideal gas
  (5) All vibrations are strictly harmonic

freq.      21.51  E(vib)   ...       0.56 
freq.      40.57  E(vib)   ...       0.54 
freq.      53.66  E(vib)   ...       0.52 
freq.      63.41  E(vib)   ...       0.51 
freq.      70.67  E(vib)   ...       0.50 
freq.      86.33  E(vib)   ...       0.48 
freq.      99.26  E(vib)   ...       0.46 
freq.     114.74  E(vib)   ...       0.44 
freq.     128.28  E(vib)   ...       0.43 
freq.     147.49  E(vib)   ...       0.41 
freq.     163.90  E(vib)   ...       0.39 
freq.     187.80  E(vib)   ...       0.36 
freq.     200.18  E(vib)   ...       0.35 
freq.     212.01  E(vib)   ...       0.34 
freq.     223.49  E(vib)   ...       0.33 
freq.     243.36  E(vib)   ...       0.31 
freq.     251.31  E(vib)   ...       0.30 
freq.     259.91  E(vib)   ...       0.30 
freq.     267.71  E(vib)   ...       0.29 
freq.     284.80  E(vib)   ...       0.28 
freq.     294.07  E(vib)   ...       0.27 
freq.     319.71  E(vib)   ...       0.25 
freq.     339.20  E(vib)   ...       0.23 
freq.     344.98  E(vib)   ...       0.23 
freq.     350.98  E(vib)   ...       0.23 
freq.     355.76  E(vib)   ...       0.22 
freq.     362.80  E(vib)   ...       0.22 
freq.     370.17  E(vib)   ...       0.21 
freq.     389.66  E(vib)   ...       0.20 
freq.     412.48  E(vib)   ...       0.19 
freq.     430.94  E(vib)   ...       0.18 
freq.     435.72  E(vib)   ...       0.17 
freq.     453.28  E(vib)   ...       0.16 
freq.     471.71  E(vib)   ...       0.15 
freq.     483.16  E(vib)   ...       0.15 
freq.     519.27  E(vib)   ...       0.13 
freq.     527.90  E(vib)   ...       0.13 
freq.     548.72  E(vib)   ...       0.12 
freq.     556.26  E(vib)   ...       0.12 
freq.     557.18  E(vib)   ...       0.12 
freq.     586.24  E(vib)   ...       0.11 
freq.     599.08  E(vib)   ...       0.10 
freq.     620.16  E(vib)   ...       0.09 
freq.     652.50  E(vib)   ...       0.08 
freq.     653.37  E(vib)   ...       0.08 
freq.     757.83  E(vib)   ...       0.06 
freq.     759.85  E(vib)   ...       0.06 
freq.     770.00  E(vib)   ...       0.05 
freq.     772.58  E(vib)   ...       0.05 
freq.     809.38  E(vib)   ...       0.05 
freq.     816.41  E(vib)   ...       0.05 
freq.     835.19  E(vib)   ...       0.04 
freq.     876.07  E(vib)   ...       0.04 
freq.     878.30  E(vib)   ...       0.04 
freq.     880.13  E(vib)   ...       0.04 
freq.     895.86  E(vib)   ...       0.03 
freq.     908.22  E(vib)   ...       0.03 
freq.     918.71  E(vib)   ...       0.03 
freq.     934.03  E(vib)   ...       0.03 
freq.     935.98  E(vib)   ...       0.03 
freq.     940.84  E(vib)   ...       0.03 
freq.     950.19  E(vib)   ...       0.03 
freq.     967.45  E(vib)   ...       0.03 
freq.     975.43  E(vib)   ...       0.03 
freq.     977.47  E(vib)   ...       0.03 
freq.    1002.39  E(vib)   ...       0.02 
freq.    1006.15  E(vib)   ...       0.02 
freq.    1013.97  E(vib)   ...       0.02 
freq.    1058.70  E(vib)   ...       0.02 
freq.    1063.14  E(vib)   ...       0.02 
freq.    1074.42  E(vib)   ...       0.02 
freq.    1102.32  E(vib)   ...       0.02 
freq.    1113.00  E(vib)   ...       0.01 
freq.    1130.92  E(vib)   ...       0.01 
freq.    1141.79  E(vib)   ...       0.01 
freq.    1151.19  E(vib)   ...       0.01 
freq.    1158.30  E(vib)   ...       0.01 
freq.    1161.87  E(vib)   ...       0.01 
freq.    1172.42  E(vib)   ...       0.01 
freq.    1172.74  E(vib)   ...       0.01 
freq.    1211.95  E(vib)   ...       0.01 
freq.    1240.31  E(vib)   ...       0.01 
freq.    1245.08  E(vib)   ...       0.01 
freq.    1261.91  E(vib)   ...       0.01 
freq.    1274.10  E(vib)   ...       0.01 
freq.    1281.27  E(vib)   ...       0.01 
freq.    1283.55  E(vib)   ...       0.01 
freq.    1292.19  E(vib)   ...       0.01 
freq.    1333.66  E(vib)   ...       0.01 
freq.    1360.74  E(vib)   ...       0.01 
freq.    1368.28  E(vib)   ...       0.01 
freq.    1372.16  E(vib)   ...       0.01 
freq.    1376.68  E(vib)   ...       0.01 
freq.    1377.99  E(vib)   ...       0.01 
freq.    1391.61  E(vib)   ...       0.00 
freq.    1396.21  E(vib)   ...       0.00 
freq.    1400.30  E(vib)   ...       0.00 
freq.    1415.74  E(vib)   ...       0.00 
freq.    1421.86  E(vib)   ...       0.00 
freq.    1434.73  E(vib)   ...       0.00 
freq.    1460.17  E(vib)   ...       0.00 
freq.    1471.01  E(vib)   ...       0.00 
freq.    1481.87  E(vib)   ...       0.00 
freq.    1485.31  E(vib)   ...       0.00 
freq.    1490.94  E(vib)   ...       0.00 
freq.    1496.70  E(vib)   ...       0.00 
freq.    1500.08  E(vib)   ...       0.00 
freq.    1502.17  E(vib)   ...       0.00 
freq.    1508.61  E(vib)   ...       0.00 
freq.    1509.03  E(vib)   ...       0.00 
freq.    1592.08  E(vib)   ...       0.00 
freq.    1595.09  E(vib)   ...       0.00 
freq.    1667.91  E(vib)   ...       0.00 
freq.    1670.00  E(vib)   ...       0.00 
freq.    1694.62  E(vib)   ...       0.00 
freq.    1711.77  E(vib)   ...       0.00 
freq.    2252.56  E(vib)   ...       0.00 
freq.    3002.37  E(vib)   ...       0.00 
freq.    3017.55  E(vib)   ...       0.00 
freq.    3021.60  E(vib)   ...       0.00 
freq.    3025.79  E(vib)   ...       0.00 
freq.    3037.36  E(vib)   ...       0.00 
freq.    3049.10  E(vib)   ...       0.00 
freq.    3059.07  E(vib)   ...       0.00 
freq.    3067.32  E(vib)   ...       0.00 
freq.    3088.14  E(vib)   ...       0.00 
freq.    3103.71  E(vib)   ...       0.00 
freq.    3105.37  E(vib)   ...       0.00 
freq.    3113.64  E(vib)   ...       0.00 
freq.    3173.67  E(vib)   ...       0.00 
freq.    3174.68  E(vib)   ...       0.00 
freq.    3183.58  E(vib)   ...       0.00 
freq.    3187.26  E(vib)   ...       0.00 
freq.    3209.60  E(vib)   ...       0.00 
freq.    3214.65  E(vib)   ...       0.00 
freq.    3218.14  E(vib)   ...       0.00 
freq.    3220.25  E(vib)   ...       0.00 
freq.    3496.41  E(vib)   ...       0.00 

------------
INNER ENERGY
------------

The inner energy is: U= E(el) + E(ZPE) + E(vib) + E(rot) + E(trans)
    E(el)   - is the total energy from the electronic structure calculation
              = E(kin-el) + E(nuc-el) + E(el-el) + E(nuc-nuc)
    E(ZPE)  - the the zero temperature vibrational energy from the frequency calculation
    E(vib)  - the the finite temperature correction to E(ZPE) due to population
              of excited vibrational states
    E(rot)  - is the rotational thermal energy
    E(trans)- is the translational thermal energy

Summary of contributions to the inner energy U:
Electronic energy                ...  -2406.89023267 Eh
Zero point energy                ...      0.38373100 Eh     240.79 kcal/mol
Thermal vibrational correction   ...      0.02136148 Eh      13.40 kcal/mol
Thermal rotational correction    ...      0.00141627 Eh       0.89 kcal/mol
Thermal translational correction ...      0.00141627 Eh       0.89 kcal/mol
-----------------------------------------------------------------------
Total thermal energy                  -2406.48230766 Eh


Summary of corrections to the electronic energy:
(perhaps to be used in another calculation)
Total thermal correction                  0.02419402 Eh      15.18 kcal/mol
Non-thermal (ZPE) correction              0.38373100 Eh     240.79 kcal/mol
-----------------------------------------------------------------------
Total correction                          0.40792502 Eh     255.98 kcal/mol


--------
ENTHALPY
--------

The enthalpy is H = U + kB*T
                kB is Boltzmann's constant
Total thermal energy              ...  -2406.48230766 Eh 
Thermal Enthalpy correction       ...      0.00094421 Eh       0.59 kcal/mol
-----------------------------------------------------------------------
Total Enthalpy                    ...  -2406.48136345 Eh


Note: Only C1 symmetry has been detected, increase convergence thresholds 
      if your molecule has a higher symmetry. Symmetry factor of 1.0 is   
      used for the rotational entropy correction. 
 

Note: Rotational entropy computed according to Herzberg 
Infrared and Raman Spectra, Chapter V,1, Van Nostrand Reinhold, 1945 
Point Group:  C1, Symmetry Number:   1  
Rotational constants in cm-1:     0.007560     0.005919     0.004257 

Vibrational entropy computed according to the QRRHO of S. Grimme
Chem.Eur.J. 2012 18 9955 using a reference frequency of 100.0 cm-1


-------
ENTROPY
-------

The entropy contributions are T*S = T*(S(el)+S(vib)+S(rot)+S(trans))
     S(el)   - electronic entropy
     S(vib)  - vibrational entropy
     S(rot)  - rotational entropy
     S(trans)- translational entropy
The entropies will be listed as multiplied by the temperature to get
units of energy

Electronic entropy                ...      0.00169175 Eh      1.06 kcal/mol
Vibrational entropy               ...      0.03701582 Eh     23.23 kcal/mol
Rotational entropy                ...      0.01681578 Eh     10.55 kcal/mol
Translational entropy             ...      0.02085313 Eh     13.09 kcal/mol
-----------------------------------------------------------------------
Final entropy term                ...      0.07637647 Eh     47.93 kcal/mol

In case the symmetry of your molecule has not been determined correctly
or in case you have a reason to use a different symmetry number we print 
out the resulting rotational entropy values for sn=1,12:

 non-linear molecules -----------------------------------
|  sn= 1 | S(rot)=       0.01681578 Eh     10.55 kcal/mol|
|  sn= 2 | S(rot)=       0.01616133 Eh     10.14 kcal/mol|
|  sn= 3 | S(rot)=       0.01577849 Eh      9.90 kcal/mol|
|  sn= 4 | S(rot)=       0.01550687 Eh      9.73 kcal/mol|
|  sn= 5 | S(rot)=       0.01529618 Eh      9.60 kcal/mol|
|  sn= 6 | S(rot)=       0.01512404 Eh      9.49 kcal/mol|
|  sn= 7 | S(rot)=       0.01497849 Eh      9.40 kcal/mol|
|  sn= 8 | S(rot)=       0.01485241 Eh      9.32 kcal/mol|
|  sn= 9 | S(rot)=       0.01474120 Eh      9.25 kcal/mol|
|  sn=10 | S(rot)=       0.01464172 Eh      9.19 kcal/mol|
|  sn=11 | S(rot)=       0.01455173 Eh      9.13 kcal/mol|
|  sn=12 | S(rot)=       0.01446958 Eh      9.08 kcal/mol|
 linear molecules ---------------------------------------
|  Dinfh | S(rot)=       0.01048026 Eh      6.58 kcal/mol|
|  Cinfv | S(rot)=       0.01113471 Eh      6.99 kcal/mol|
 --------------------------------------------------------


-------------------
GIBBS FREE ENERGY
-------------------

The Gibbs free energy is G = H - T*S

Total enthalpy                    ...  -2406.48136345 Eh 
Total entropy correction          ...     -0.07637647 Eh    -47.93 kcal/mol
-----------------------------------------------------------------------
Final Gibbs free energy         ...  -2406.55773992 Eh

For completeness - the Gibbs free energy minus the electronic energy
G-E(el)                           ...      0.33249275 Eh    208.64 kcal/mol


Maximum memory used throughout the entire PROP-calculation: 1311.9 MB

--------------------------------
SUGGESTED CITATIONS FOR THIS RUN
--------------------------------

Below you find a list of papers that are relevant to this ORCA run
We neither can nor want to force you to cite these papers, but we appreciate if you do
You receive ORCA, which is the product of decades of hard work by many enthusiastic individuals, for free
The only thing we kindly ask in return is that you cite our papers,
We deeply appreciate it, if you show your appreciation for ORCA by not just citing the generic ORCA reference.

Please note that relegating all ORCA citations to the supporting information does *not* help us.
SI sections are not indexed - citations you put there will not count into any citation statistics
But we need these citations in order to attract the funding resources that allow us to do what we are doing

Therefore, if you are a happy ORCA user, please consider citing a few of the papers listed below in the main body of your paper

In addition to the list printed below, the program has created the file UHIBAP-S2.bibtex that contains the list in bibtex format
You can import this file easily into all common literature databanks and citation aid programs


List of essential papers. We consider these as the minimum necessary citations

  1. Neese,F.
     Software update: the ORCA program system, version 5.0
     WIRES Comput. Molec. Sci., 2022 12(1)e1606
     doi.org/10.1002/wcms.1606

List of papers to cite with high priority. The work reported in these papers was absolutely
necessary for this run to complete.
Our perspective: the developers of density functionals and basis sets usually get cited in chemistry papers
Good! But without the algorithms to do something with them, the functionals or basis sets would not do anything.
Hence, in our opinion, the algorithm design and method developments papers are equally worthy of getting cited

  1. Neese,F.
     An improvement of the resolution of the identity approximation for the formation of the Coulomb matrix
     J. Comp. Chem., 2003 24(14)1740-1747
     doi.org/10.1002/jcc.10318
  2. Neese,F.; Wennmohs,F.; Hansen,A.; Becker,U.
     Efficient, approximate and parallel Hartree-Fock and hybrid DFT calculations. A 'chain-of-spheres' algorithm for the Hartree-Fock exchange
     Chem. Phys., 2009 356(1-3)98-109
     doi.org/10.1016/j.chemphys.2008.10.036
  3. Bykov,D.; Petrenko,T.; Izsak,R.; Kossmann,S.; Becker,U.; Valeev,E.; Neese,F.
     Efficient implementation of the analytic second derivatives of Hartree-Fock and hybrid DFT energies: a detailed analysis of different approximations
     Molec. Phys., 2015 113 1961-1977
     doi.org/10.1080/00268976.2015.1025114
  4. Helmich-Paris,B.; de Souza,B.; Neese,F.; Izsák,R.
     An improved chain of spheres for exchange algorithm
     J. Chem. Phys., 2021 155 104109
     doi.org/doi: 10.1063/5.0058766.
  5. Neese,F.
     The SHARK Integral Generation and Digestion System
     J. Comp. Chem., 2022  1-16
     doi.org/10.1002/jcc.26942

List of suggested additional citations. These are papers that are important in the 'surrounding' of 
of this run, or papers that preceded the highly important papers. If you like your results we are grateful for a citation.

  1. Izsak,R.; Neese,F.
     An overlap fitted chain of spheres exchange method
     J. Chem. Phys., 2011 135 144105
     doi.org/10.1063/1.3646921
  2. Izsak,R.; Hansen,A.; Neese,F.
     The resolution of identity and chain of spheres approximations for the LPNO-CCSD singles Fock term
     Molec. Phys., 2012 110 2413-2417
     doi.org/10.1080/00268976.2012.687466
  3. Neese,F.
     The ORCA program system
     WIRES Comput. Molec. Sci., 2012 2(1)73-78
     doi.org/10.1002/wcms.81
  4. Izsak,R.; Neese,F.; Klopper,W.
     Robust fitting techniques in the chain of spheres approximation to the Fock exchange: The role of the complementary space
     J. Chem. Phys., 2013 139 
     doi.org/10.1063/1.4819264
  5. Neese,F.
     Software update: the ORCA program system, version 4.0
     WIRES Comput. Molec. Sci., 2018 8(1)1-6
     doi.org/10.1002/wcms.1327
  6. Neese,F.; Wennmohs,F.; Becker,U.; Riplinger,C.
     The ORCA quantum chemistry program package
     J. Chem. Phys., 2020 152 Art. No. L224108
     doi.org/10.1063/5.0004608

List of optional additional citations

  1. Neese,F.
     Approximate second-order SCF convergence for spin unrestricted wavefunctions
     Chem. Phys. Lett., 2000 325(1-3)93-98
     doi.org/10.1016/s0009-2614(00)00662-x

Timings for individual modules:

Sum of individual times          ...    18649.258 sec (= 310.821 min)
Startup calculation              ...      293.048 sec (=   4.884 min)   1.6 %
SCF iterations                   ...     6051.981 sec (= 100.866 min)  32.5 %
Property integrals               ...     3870.130 sec (=  64.502 min)  20.8 %
SCF Response                     ...     5836.106 sec (=  97.268 min)  31.3 %
Property calculations            ...     1029.631 sec (=  17.161 min)   5.5 %
SCF Gradient evaluation          ...     1567.340 sec (=  26.122 min)   8.4 %
Geometry relaxation              ...        1.023 sec (=   0.017 min)   0.0 %
                             ****ORCA TERMINATED NORMALLY****
TOTAL RUN TIME: 0 days 5 hours 11 minutes 45 seconds 330 msec
