
                                 *****************
                                 * O   R   C   A *
                                 *****************

                                            #,                                       
                                            ###                                      
                                            ####                                     
                                            #####                                    
                                            ######                                   
                                           ########,                                 
                                     ,,################,,,,,                         
                               ,,#################################,,                 
                          ,,##########################################,,             
                       ,#########################################, ''#####,          
                    ,#############################################,,   '####,        
                  ,##################################################,,,,####,       
                ,###########''''           ''''###############################       
              ,#####''   ,,,,##########,,,,          '''####'''          '####       
            ,##' ,,,,###########################,,,                        '##       
           ' ,,###''''                  '''############,,,                           
         ,,##''                                '''############,,,,        ,,,,,,###''
      ,#''                                            '''#######################'''  
     '                                                          ''''####''''         
             ,#######,   #######,   ,#######,      ##                                
            ,#'     '#,  ##    ##  ,#'     '#,    #''#        ,####,   ,####,        
            ##       ##  ##   ,#'  ##            #'  '#       #'       #'  '#        
            ##       ##  #######   ##           ,######,      #####,   #    #        
            '#,     ,#'  ##    ##  '#,     ,#' ,#      #,     #,   #   #,  ,#        
             '#######'   ##     ##  '#######'  #'      '#     '####' # '####'        



                #########################################################
                #                        -***-                          #
                #          Department of theory and spectroscopy        #
                #                                                       #
                #                      Frank Neese                      #
                #                                                       #
                #     Directorship, Architecture, Infrastructure        #
                #                    SHARK, DRIVERS                     #
                #        Core code/Algorithms in most modules           #
                #                                                       #
                #        Max Planck Institute fuer Kohlenforschung      #
                #                Kaiser Wilhelm Platz 1                 #
                #                 D-45470 Muelheim/Ruhr                 #
                #                      Germany                          #
                #                                                       #
                #                  All rights reserved                  #
                #                        -***-                          #
                #########################################################


                         Program Version 6.0.1  -  RELEASE   -


 With contributions from (in alphabetic order):
[Max-Planck-Institut fuer Kohlenforschung]                               
  Daniel Aravena         : Magnetic Suceptibility                        
  Michael Atanasov       : Ab Initio Ligand Field Theory (pilot matlab implementation)
  Alexander A. Auer      : GIAO ZORA, VPT2 properties, NMR spectrum      
  Ute Becker             : All parallelization in ORCA, NUMFREQ, NUMCALC 
  Giovanni Bistoni       : ED, misc. LED, open-shell LED, HFLD           
  Martin Brehm           : Molecular dynamics                            
  Dmytro Bykov           : pre 5.0 version of the SCF Hessian            
  Marcos Casanova-Páez   : Triplet and SCS-CIS(D). UHF-(DLPNO)-IP/EA/STEOM-CCSD. UHF-CVS-IP/STEOM-CCSD   
  Vijay G. Chilkuri      : MRCI spin determinant printing, contributions to CSF-ICE 
  Pauline Colinet        : FMM embedding                                 
  Dipayan Datta          : RHF DLPNO-CCSD density                        
  Achintya Kumar Dutta   : EOM-CC, STEOM-CC                              
  Nicolas Foglia         : Exact transition moments, OPA infrastructure, MCD improvements    
  Dmitry Ganyushin       : Spin-Orbit,Spin-Spin,Magnetic field MRCI      
  Miquel Garcia-Rates    : C-PCM and meta-GGA Hessian, CCSD/C-PCM, Gaussian charge scheme 
  Tiago L. C. Gouveia    : GS-ROHF, GS-ROCIS                             
  Yang Guo               : DLPNO-NEVPT2, F12-NEVPT2, CIM, IAO-localization        
  Andreas Hansen         : Spin unrestricted coupled pair/coupled cluster methods 
  Ingolf Harden          : AUTO-CI MPn and infrastructure                
  Benjamin Helmich-Paris : MC-RPA, TRAH-(SCF,CASSCF), AVAS, COSX integrals, SCF dyn. polar. 
  Lee Huntington         : MR-EOM, pCC                                   
  Robert Izsak           : Overlap fitted RIJCOSX, COSX-SCS-MP3, EOM     
  Riya Kayal             : Wick's Theorem for AUTO-CI, AUTO-CI UHF-CCSDT 
  Emily Kempfer          : AUTO-CI, RHF CISDT and CCSDT                  
  Christian Kollmar      : KDIIS, OOCD, Brueckner-CCSD(T), CCSD density, CASPT2, CASPT2-K, improved NEVPT2 
  Axel Koslowski         : Symmetry handling                             
  Simone Kossmann        : meta-GGA functionals, TD-DFT gradient, OOMP2, (MP2 Hessian; deprecated post 5.0) 
  Lucas Lang             : DCDCAS                                        
  Marvin Lechner         : AUTO-CI (C++ implementation), FIC-MRCC        
  Spencer Leger          : CASSCF response                               
  Dagmar Lenk            : GEPOL surface, SMD, ORCA-2-JSON               
  Dimitrios Liakos       : Extrapolation schemes; Compound Job, initial MDCI parallelization 
  Dimitrios Manganas     : Further ROCIS development; embedding schemes. LFT, Crystal Embedding 
  Dimitrios Pantazis     : SARC Basis sets                               
  Anastasios Papadopoulos: AUTO-CI, single reference methods and gradients 
  Taras Petrenko         : pre 6.0 DFT Hessian and TD-DFT gradient, (ASA, deprecated), ECA, 1-Electron XAS/XES, NRVS 
  Peter Pinski           : DLPNO-MP2, DLPNO-MP2 Gradient                 
  Christoph Reimann      : Effective Core Potentials                     
  Marius Retegan         : Local ZFS, SOC                                
  Christoph Riplinger    : Optimizer, TS searches, QM/MM, DLPNO-CCSD(T), (RO)-DLPNO pert. Triples 
  Michael Roemelt        : Original ROCIS implementation                 
  Masaaki Saitow         : Open-shell DLPNO-CCSD energy and density      
  Barbara Sandhoefer     : DKH picture change effects                    
  Kantharuban Sivalingam : CASSCF convergence/infrastructure, NEVPT2 and variants, FIC-MRCI 
  Bernardo de Souza      : ESD, SOC TD-DFT                               
  Georgi L. Stoychev     : AutoAux, RI-MP2 NMR, DLPNO-MP2 response, X2C  
  Van Anh Tran           : RI-MP2 g-tensors                              
  Willem Van den Heuvel  : Paramagnetic NMR                              
  Zikuan Wang            : NOTCH, Electric field optimization            
  Frank Wennmohs         : Technical directorship and infrastructure     
  Hang Xu                : AUTO-CI-Response properties                   
                                                                         
[FACCTs GmbH]                                                            
  Markus Bursch, Miquel Garcia-Rates, Christoph Riplinger, Bernardo de Souza, Georgi L. Stoychev 
                                                                 
  APM, Basis sets (HGBS, AHGBS, def-TZVP (Ac-Lr), def2-XVPD (La-Lu)), CI-OPT, improved COSX, DLPNO-Multilevel,           
  DOCKER, DRACO, updates on ESD, GOAT, IRC, LR-CPCM, MBIS, meta-GGA TD-DFT gradient, ML-optimized integration grids, 
  MM, NACMEs, nearIR, NEB, NEB-TS, NL-DFT gradient (VV10), 2- and 3-layer-ONIOM, interface openCOSMO-RS, QMMM,   
  Crystal-QMMM, SF, symmetry and pop. for TD-DFT, r2SCAN hybrids, SOLVATOR                                   
                                                                         
[Other institutions]                                                     
  V. Asgeirsson          : NEB                                           
  Christoph Bannwarth    : sTDA-DFT, sTD-DFT, PBEh-3c, B97-3c, D3        
  Sebastian Ehlert       : rSCAN, r2SCAN, r2SCAN-3c, D4, dhf basis sets  
  Marvin Friede          : D4 for Fr, Ra, Ac-Lr                          
  Lars Goerigk           : TD-DFT with DH, B97 family of functionals     
  Stefan Grimme          : VdW corrections, initial TS optimization, DFT functionals, gCP, sTDA/sTD-DF 
  Waldemar Hujo          : DFT-NL                                        
  H. Jonsson             : NEB                                           
  Holger Kruse           : gCP                                           
  Marcel Mueller         : wB97X-3c, vDZP basis set                      
  Hagen Neugebauer       : wr2SCAN                                       
  Tobias Risthaus        : range-separated hybrid DFT                    
  Lukas Wittmann         : regularized MP2, r2SCAN double-hybrids, wr2SCAN        
                                                                         
We gratefully acknowledge several colleagues who have allowed us to      
interface, adapt or use parts of their codes:                            
  Ed Valeev, F. Pavosevic, A. Kumar             : LibInt (2-el integral package), F12 methods 
  Garnet Chan, S. Sharma, J. Yang, R. Olivares  : DMRG                   
  Ulf Ekstrom                                   : XCFun DFT Library      
  Mihaly Kallay                                 : mrcc  (arbitrary order and MRCC methods)
  Frank Weinhold                                : gennbo (NPA and NBO analysis)           
  Simon Mueller                                 : openCOSMO-RS                            
  Christopher J. Cramer and Donald G. Truhlar   : smd solvation model                     
  S Lehtola, MJT Oliveira, MAL Marques          : LibXC Library                           
  Liviu Ungur et al                             : ANISO software                          


 Your calculation uses the libint2 library for the computation of 2-el integrals
 For citations please refer to: http://libint.valeyev.net

 Your ORCA version has been built with support for libXC version: 6.2.2
 For citations please refer to: https://libxc.gitlab.io

 This ORCA versions uses:
   CBLAS   interface :  Fast vector & matrix operations
   LAPACKE interface :  Fast linear algebra routines
   SCALAPACK package :  Parallel linear algebra routines
   Shared memory     :  Shared parallel matrices
   BLAS/LAPACK       :  OpenBLAS 0.3.27  USE64BITINT DYNAMIC_ARCH NO_AFFINITY Cooperlake SINGLE_THREADED
        Core in use  :  Cooperlake
   Copyright (c) 2011-2014, The OpenBLAS Project


NOTE: MaxCore=3600 MB was set to SCF,MP2,MDCI,CIPSI,MRCI and CIS
      => If you want to overwrite this, your respective input block should be placed after the MaxCore statement
Warning: RI is on but no J-basis has been assigned. Assigning Def2/J (nothing to worry about!)
================================================================================

----- Orbital basis set information -----
Your calculation utilizes the basis: def2-TZVP
   F. Weigend and R. Ahlrichs, Phys. Chem. Chem. Phys. 7, 3297 (2005).

----- AuxJ basis set information -----
Your calculation utilizes the auxiliary basis: def2/J
   F. Weigend, Phys. Chem. Chem. Phys. 8, 1057 (2006).

================================================================================
                                        WARNINGS
                       Please study these warnings very carefully!
================================================================================


WARNING: your system is open-shell and RHF/RKS was chosen
  ===> : WILL SWITCH to UHF/UKS


WARNING: Geometry Optimization
  ===> : Switching off AutoStart
         For restart on a previous wavefunction, please use MOREAD

================================================================================
                                       INPUT FILE
================================================================================
NAME = UJAZOX-S6.inp
|  1> ! PBE0 def2-TZVP  Opt Freq DEFGRID3
|  2> 
|  3> %maxcore 3600
|  4> 
|  5> %pal
|  6>     nprocs 16
|  7> end
|  8> 
|  9> *xyz 0 6
| 10> Fe 4.647 6.6337 9.8428
| 11> Cl 5.6572 4.8138 8.7721
| 12> Cl 0.6788 4.0631 9.9393
| 13> Cl -1.0706 6.0983 5.2988
| 14> Cl 1.591 9.9825 10.6446
| 15> Cl 0.1673 7.6632 15.2543
| 16> O 2.9001 5.8969 9.6084
| 17> O 3.9115 8.2024 10.7913
| 18> N 4.3832 7.7388 8.0825
| 19> N 6.5435 7.7172 9.7726
| 20> H 6.4125 8.5361 10.2952
| 21> N 5.2294 6.0665 11.784
| 22> C 2.0708 5.944 8.597
| 23> C 0.9224 5.1319 8.6031
| 24> C -0.0249 5.1705 7.6055
| 25> H -0.7743 4.621 7.6466
| 26> C 0.1512 6.0364 6.5408
| 27> C 1.2587 6.8278 6.459
| 28> H 1.3708 7.3915 5.7279
| 29> C 2.2353 6.7976 7.4761
| 30> C 3.3789 7.6729 7.3035
| 31> H 3.3786 8.2332 6.5611
| 32> C 5.4501 8.7177 7.8388
| 33> H 5.2453 9.5531 8.2877
| 34> H 5.5318 8.8928 6.8883
| 35> C 6.7417 8.1449 8.3734
| 36> H 7.0133 7.3871 7.833
| 37> H 7.4411 8.8157 8.3304
| 38> C 7.7566 7.0633 10.3192
| 39> H 8.4965 7.6888 10.2703
| 40> H 7.9786 6.3021 9.76
| 41> C 7.6146 6.5885 11.7529
| 42> H 7.3863 7.3511 12.3067
| 43> H 8.4766 6.2588 12.0529
| 44> C 6.5722 5.4946 11.9836
| 45> H 6.7163 4.7642 11.3611
| 46> H 6.6527 5.1461 12.8853
| 47> C 4.507 6.2889 12.8184
| 48> H 4.7745 5.9089 13.6238
| 49> C 3.2991 7.0944 12.8192
| 50> C 2.4334 7.0058 13.9055
| 51> H 2.619 6.4235 14.6065
| 52> C 1.3001 7.7859 13.9338
| 53> C 1.0425 8.6894 12.9267
| 54> H 0.2692 9.2049 12.9536
| 55> C 1.9134 8.8308 11.8938
| 56> C 3.0857 8.0384 11.7734
| 57> *
| 58> 
| 59>                          ****END OF INPUT****
================================================================================

                       *****************************
                       * Geometry Optimization Run *
                       *****************************

Geometry optimization settings:
Update method            Update   .... BFGS
Choice of coordinates    CoordSys .... (2022) Redundant Internals
Initial Hessian          InHess   .... Almloef's Model
Max. no of cycles        MaxIter  .... 141

Convergence Tolerances:
Energy Change            TolE     ....  5.0000e-06 Eh
Max. Gradient            TolMAXG  ....  3.0000e-04 Eh/bohr
RMS Gradient             TolRMSG  ....  1.0000e-04 Eh/bohr
Max. Displacement        TolMAXD  ....  4.0000e-03 bohr
RMS Displacement         TolRMSD  ....  2.0000e-03 bohr
Strict Convergence                .... False

------------------------------------------------------------------------------
                        ORCA OPTIMIZATION COORDINATE SETUP
------------------------------------------------------------------------------

The optimization will be done in redundant internal coordinates (2022)
Making redundant internal coordinates   ...  (2022 redundants) done
Evaluating the initial hessian          ...  (Almloef) done
Evaluating the coordinates              ...  done
Calculating the B-matrix                .... done
Calculating the G-matrix                .... done
Diagonalizing the G-matrix              .... done
Small eigenvalue found = 1.001e-02
Small eigenvalue found = 1.596e-02
Small eigenvalue found = 2.489e-02
The first mode is                       ....  156
The number of degrees of freedom        ....  135

    -----------------------------------------------------------------
                    Redundant Internal Coordinates


    -----------------------------------------------------------------
         Definition                    Initial Value    Approx d2E/dq
    -----------------------------------------------------------------
      1. B(Cl  1,Fe  0)                  2.3407         0.431576   
      2. B(O   6,Fe  0)                  1.9104         0.837140   
      3. B(O   7,Fe  0)                  1.9752         0.659696   
      4. B(N   8,Fe  0)                  2.0951         0.424658   
      5. B(N   9,Fe  0)                  2.1853         0.304875   
      6. B(H  10,N   9)                  0.9802         0.482699   
      7. B(N  11,Fe  0)                  2.1046         0.410175   
      8. B(C  12,O   6)                  1.3088         0.754168   
      9. B(C  13,C  12)                  1.4065         0.587954   
     10. B(C  13,Cl  2)                  1.7283         0.404538   
     11. B(C  14,C  13)                  1.3763         0.657159   
     12. B(H  15,C  14)                  0.9302         0.647741   
     13. B(C  16,C  14)                  1.3836         0.639634   
     14. B(C  16,Cl  3)                  1.7433         0.382845   
     15. B(C  17,C  16)                  1.3637         0.688282   
     16. B(H  18,C  17)                  0.9300         0.648264   
     17. B(C  19,C  17)                  1.4104         0.579742   
     18. B(C  19,C  12)                  1.4185         0.562713   
     19. B(C  20,C  19)                  1.4504         0.500401   
     20. B(C  20,N   8)                  1.2727         0.860988   
     21. B(H  21,C  20)                  0.9301         0.647928   
     22. B(C  22,N   8)                  1.4683         0.419710   
     23. B(H  23,C  22)                  0.9702         0.559123   
     24. B(H  24,C  22)                  0.9699         0.559719   
     25. B(C  25,C  22)                  1.5107         0.401066   
     26. B(C  25,N   9)                  1.4765         0.407300   
     27. B(H  26,C  25)                  0.9696         0.560489   
     28. B(H  27,C  25)                  0.9700         0.559510   
     29. B(C  28,N   9)                  1.4826         0.398300   
     30. B(H  29,C  28)                  0.9701         0.559392   
     31. B(H  30,C  28)                  0.9703         0.559053   
     32. B(C  31,C  28)                  1.5169         0.391941   
     33. B(H  32,C  31)                  0.9697         0.560155   
     34. B(H  33,C  31)                  0.9704         0.558701   
     35. B(C  34,C  31)                  1.5285         0.375582   
     36. B(C  34,N  11)                  1.4731         0.412378   
     37. B(H  35,C  34)                  0.9704         0.558692   
     38. B(H  36,C  34)                  0.9700         0.559496   
     39. B(C  37,N  11)                  1.2811         0.834762   
     40. B(H  38,C  37)                  0.9299         0.648528   
     41. B(C  39,C  37)                  1.4518         0.497816   
     42. B(C  40,C  39)                  1.3919         0.620493   
     43. B(H  41,C  40)                  0.9300         0.648148   
     44. B(C  42,C  40)                  1.3761         0.657464   
     45. B(C  42,Cl  5)                  1.7441         0.381709   
     46. B(C  43,C  42)                  1.3773         0.654668   
     47. B(H  44,C  43)                  0.9298         0.648744   
     48. B(C  45,C  43)                  1.3584         0.701617   
     49. B(C  45,Cl  4)                  1.7294         0.402930   
     50. B(C  46,C  45)                  1.4201         0.559394   
     51. B(C  46,C  39)                  1.4249         0.549591   
     52. B(C  46,O   7)                  1.2936         0.797443   
     53. A(O   7,Fe  0,N   9)           86.8362         0.481880   
     54. A(O   7,Fe  0,N   8)           86.4263         0.512481   
     55. A(Cl  1,Fe  0,N   8)           94.5954         0.491973   
     56. A(O   6,Fe  0,N   8)           89.1524         0.535940   
     57. A(N   8,Fe  0,N   9)           79.6744         0.444599   
     58. A(Cl  1,Fe  0,N   9)           89.7855         0.462854   
     59. A(O   6,Fe  0,N   9)          168.7737         0.503644   
     60. A(O   7,Fe  0,N  11)           82.7708         0.509168   
     61. A(Cl  1,Fe  0,O   6)           92.2152         0.558884   
     62. A(Cl  1,Fe  0,N  11)           95.3330         0.488820   
     63. A(O   6,Fe  0,O   7)           91.4169         0.582797   
     64. A(N   8,Fe  0,N  11)          162.1718         0.469297   
     65. A(O   6,Fe  0,N  11)          105.2056         0.532443   
     66. A(N   9,Fe  0,N  11)           85.5894         0.441817   
     67. A(Fe  0,O   6,C  12)          131.3280         0.528644   
     68. A(Fe  0,O   7,C  46)          120.1058         0.510861   
     69. A(Fe  0,N   8,C  20)          125.8956         0.477514   
     70. A(C  20,N   8,C  22)          120.4183         0.423697   
     71. A(Fe  0,N   8,C  22)          113.5541         0.419201   
     72. A(H  10,N   9,C  28)          106.3353         0.339080   
     73. A(Fe  0,N   9,C  28)          118.6580         0.391732   
     74. A(C  25,N   9,C  28)          111.5503         0.368207   
     75. A(H  10,N   9,C  25)          106.3303         0.340348   
     76. A(Fe  0,N   9,C  25)          106.8917         0.393267   
     77. A(Fe  0,N   9,H  10)          106.3258         0.361526   
     78. A(Fe  0,N  11,C  37)          122.8137         0.471785   
     79. A(C  34,N  11,C  37)          118.1637         0.420038   
     80. A(Fe  0,N  11,C  34)          118.8073         0.415314   
     81. A(C  13,C  12,C  19)          116.4589         0.422546   
     82. A(O   6,C  12,C  19)          123.9752         0.438977   
     83. A(O   6,C  12,C  13)          119.5527         0.442470   
     84. A(C  12,C  13,C  14)          122.8644         0.434467   
     85. A(Cl  2,C  13,C  14)          118.7335         0.424745   
     86. A(Cl  2,C  13,C  12)          118.3906         0.416395   
     87. A(H  15,C  14,C  16)          120.4139         0.392550   
     88. A(C  13,C  14,H  15)          120.3941         0.394412   
     89. A(C  13,C  14,C  16)          119.1920         0.441118   
     90. A(C  14,C  16,C  17)          120.8456         0.444825   
     91. A(Cl  3,C  16,C  17)          120.3879         0.424074   
     92. A(Cl  3,C  16,C  14)          118.7665         0.418561   
     93. A(H  18,C  17,C  19)          119.7658         0.385924   
     94. A(C  16,C  17,C  19)          120.4431         0.436995   
     95. A(C  16,C  17,H  18)          119.7911         0.397684   
     96. A(C  17,C  19,C  20)          116.5654         0.412770   
     97. A(C  12,C  19,C  20)          123.2724         0.410593   
     98. A(C  12,C  19,C  17)          120.1621         0.421486   
     99. A(C  19,C  20,H  21)          117.2752         0.376162   
    100. A(N   8,C  20,H  21)          117.2334         0.411019   
    101. A(N   8,C  20,C  19)          125.4913         0.440176   
    102. A(H  24,C  22,C  25)          110.0733         0.353235   
    103. A(N   8,C  22,C  25)          108.0428         0.372887   
    104. A(H  23,C  22,H  24)          108.4055         0.335382   
    105. A(H  23,C  22,C  25)          110.0731         0.353171   
    106. A(N   8,C  22,H  24)          110.1334         0.353770   
    107. A(N   8,C  22,H  23)          110.1129         0.353706   
    108. A(H  26,C  25,H  27)          108.2886         0.335498   
    109. A(C  22,C  25,H  27)          109.7888         0.353213   
    110. A(N   9,C  25,H  27)          109.8227         0.351955   
    111. A(C  22,C  25,H  26)          109.7925         0.353317   
    112. A(N   9,C  25,H  26)          109.8396         0.352059   
    113. A(N   9,C  25,C  22)          109.2946         0.370965   
    114. A(H  30,C  28,C  31)          108.6977         0.351791   
    115. A(H  29,C  28,C  31)          108.7145         0.351828   
    116. A(N   9,C  28,C  31)          114.1994         0.368085   
    117. A(H  29,C  28,H  30)          107.5950         0.335343   
    118. A(N   9,C  28,H  30)          108.7087         0.350580   
    119. A(N   9,C  28,H  29)          108.7301         0.350616   
    120. A(H  33,C  31,C  34)          108.4188         0.349231   
    121. A(H  32,C  31,C  34)          108.4240         0.349384   
    122. A(C  28,C  31,C  34)          115.4982         0.366685   
    123. A(H  32,C  31,H  33)          107.4427         0.335384   
    124. A(C  28,C  31,H  33)          108.3829         0.351754   
    125. A(C  28,C  31,H  32)          108.3998         0.351909   
    126. A(H  35,C  34,H  36)          108.2730         0.335317   
    127. A(C  31,C  34,H  36)          109.9260         0.349315   
    128. A(N  11,C  34,H  36)          109.9421         0.352692   
    129. A(C  31,C  34,H  35)          109.9106         0.349230   
    130. A(N  11,C  34,H  35)          109.9158         0.352606   
    131. A(N  11,C  34,C  31)          108.8657         0.367586   
    132. A(H  38,C  37,C  39)          117.7490         0.375886   
    133. A(N  11,C  37,C  39)          124.4640         0.437317   
    134. A(N  11,C  37,H  38)          117.7870         0.408840   
    135. A(C  40,C  39,C  46)          121.4551         0.424839   
    136. A(C  37,C  39,C  46)          119.4561         0.408505   
    137. A(C  37,C  39,C  40)          118.8536         0.417402   
    138. A(H  41,C  40,C  42)          120.2509         0.394488   
    139. A(C  39,C  40,C  42)          119.4839         0.438742   
    140. A(C  39,C  40,H  41)          120.2652         0.390512   
    141. A(C  40,C  42,C  43)          120.7216         0.443012   
    142. A(Cl  5,C  42,C  43)          118.5735         0.420075   
    143. A(Cl  5,C  42,C  40)          120.7020         0.420395   
    144. A(H  44,C  43,C  45)          119.8351         0.399080   
    145. A(C  42,C  43,C  45)          120.2892         0.448258   
    146. A(C  42,C  43,H  44)          119.8756         0.394257   
    147. A(C  43,C  45,C  46)          122.3860         0.435694   
    148. A(Cl  4,C  45,C  46)          117.6613         0.412434   
    149. A(Cl  4,C  45,C  43)          119.9360         0.429450   
    150. A(C  39,C  46,C  45)          115.5356         0.417051   
    151. A(O   7,C  46,C  45)          121.3734         0.442951   
    152. A(O   7,C  46,C  39)          123.0655         0.441537   
    153. D(C  12,O   6,Fe  0,N  11)    179.7966         0.004973   
    154. D(C  12,O   6,Fe  0,O   7)     96.9036         0.004973   
    155. D(C  12,O   6,Fe  0,Cl  1)    -84.0666         0.004973   
    156. D(C  12,O   6,Fe  0,N   9)     16.0499         0.004973   
    157. D(C  12,O   6,Fe  0,N   8)     10.4998         0.004973   
    158. D(C  46,O   7,Fe  0,N   8)    139.4072         0.003643   
    159. D(C  46,O   7,Fe  0,N  11)    -54.8036         0.003643   
    160. D(C  46,O   7,Fe  0,O   6)     50.3453         0.003643   
    161. D(C  46,O   7,Fe  0,N   9)   -140.7536         0.003643   
    162. D(C  20,N   8,Fe  0,N   9)    177.0506         0.002449   
    163. D(C  20,N   8,Fe  0,O   7)    -95.5188         0.002449   
    164. D(C  20,N   8,Fe  0,Cl  1)     88.1084         0.002449   
    165. D(C  22,N   8,Fe  0,Cl  1)    -96.0824         0.002449   
    166. D(C  20,N   8,Fe  0,N  11)   -148.2168         0.002449   
    167. D(C  22,N   8,Fe  0,O   6)    171.7632         0.002449   
    168. D(C  20,N   8,Fe  0,O   6)     -4.0460         0.002449   
    169. D(C  25,N   9,Fe  0,O   6)    -26.4367         0.002024   
    170. D(H  10,N   9,Fe  0,O   6)     86.8383         0.002024   
    171. D(C  25,N   9,Fe  0,O   7)   -107.7353         0.002024   
    172. D(H  10,N   9,Fe  0,O   7)      5.5397         0.002024   
    173. D(H  10,N   9,Fe  0,N   8)     92.4795         0.002024   
    174. D(H  10,N   9,Fe  0,N  11)    -77.4446         0.002024   
    175. D(C  25,N   9,Fe  0,Cl  1)     73.9149         0.002024   
    176. D(H  10,N   9,Fe  0,Cl  1)   -172.8101         0.002024   
    177. D(C  37,N  11,Fe  0,O   6)    -52.6758         0.002386   
    178. D(C  34,N  11,Fe  0,N   9)    -50.3751         0.002386   
    179. D(C  34,N  11,Fe  0,O   7)   -137.7378         0.002386   
    180. D(C  34,N  11,Fe  0,O   6)    132.7577         0.002386   
    181. D(C  34,N  11,Fe  0,Cl  1)     38.9963         0.002386   
    182. D(C  37,N  11,Fe  0,Cl  1)   -146.4372         0.002386   
    183. D(C  34,N  11,Fe  0,N   8)    -84.5821         0.002386   
    184. D(C  19,C  12,O   6,Fe  0)    -11.5099         0.043250   
    185. D(C  13,C  12,O   6,Fe  0)    169.8643         0.043250   
    186. D(C  14,C  13,C  12,C  19)     -1.7311         0.023781   
    187. D(C  14,C  13,C  12,O   6)    176.9960         0.023781   
    188. D(Cl  2,C  13,C  12,C  19)    179.5165         0.023781   
    189. D(Cl  2,C  13,C  12,O   6)     -1.7564         0.023781   
    190. D(C  16,C  14,C  13,C  12)      0.3466         0.030116   
    191. D(C  16,C  14,C  13,Cl  2)    179.0949         0.030116   
    192. D(H  15,C  14,C  13,C  12)   -179.6625         0.030116   
    193. D(H  15,C  14,C  13,Cl  2)     -0.9142         0.030116   
    194. D(C  17,C  16,C  14,H  15)   -178.7663         0.028424   
    195. D(C  17,C  16,C  14,C  13)      1.2245         0.028424   
    196. D(Cl  3,C  16,C  14,H  15)      1.1662         0.028424   
    197. D(Cl  3,C  16,C  14,C  13)   -178.8430         0.028424   
    198. D(C  19,C  17,C  16,C  14)     -1.3017         0.033272   
    199. D(C  19,C  17,C  16,Cl  3)    178.7669         0.033272   
    200. D(H  18,C  17,C  16,Cl  3)     -1.2099         0.033272   
    201. D(H  18,C  17,C  16,C  14)    178.7215         0.033272   
    202. D(C  20,C  19,C  17,H  18)     -0.0491         0.023090   
    203. D(C  20,C  19,C  17,C  16)    179.9741         0.023090   
    204. D(C  12,C  19,C  17,H  18)    179.8049         0.023090   
    205. D(C  12,C  19,C  17,C  16)     -0.1719         0.023090   
    206. D(C  20,C  19,C  12,C  13)   -178.5360         0.021698   
    207. D(C  20,C  19,C  12,O   6)      2.7992         0.021698   
    208. D(C  17,C  19,C  12,C  13)      1.6201         0.021698   
    209. D(C  17,C  19,C  12,O   6)   -177.0447         0.021698   
    210. D(N   8,C  20,C  19,C  12)      3.4252         0.017056   
    211. D(H  21,C  20,N   8,C  22)      3.2099         0.064401   
    212. D(H  21,C  20,N   8,Fe  0)    178.7545         0.064401   
    213. D(C  19,C  20,N   8,C  22)   -176.7986         0.064401   
    214. D(N   8,C  20,C  19,C  17)   -176.7257         0.017056   
    215. D(C  19,C  20,N   8,Fe  0)     -1.2540         0.064401   
    216. D(H  21,C  20,C  19,C  17)      3.2658         0.017056   
    217. D(H  21,C  20,C  19,C  12)   -176.5833         0.017056   
    218. D(C  25,C  22,N   8,Fe  0)     33.2690         0.015021   
    219. D(H  24,C  22,N   8,Fe  0)    153.5265         0.015021   
    220. D(H  23,C  22,N   8,C  20)     89.0875         0.015021   
    221. D(H  23,C  22,N   8,Fe  0)    -86.9761         0.015021   
    222. D(H  24,C  22,N   8,C  20)    -30.4098         0.015021   
    223. D(H  26,C  25,C  22,H  24)    -51.9335         0.012760   
    224. D(H  26,C  25,C  22,H  23)   -171.3682         0.012760   
    225. D(H  26,C  25,C  22,N   8)     68.3617         0.012760   
    226. D(N   9,C  25,C  22,H  24)   -172.4742         0.012760   
    227. D(N   9,C  25,C  22,H  23)     68.0911         0.012760   
    228. D(N   9,C  25,C  22,N   8)    -52.1790         0.012760   
    229. D(H  26,C  25,N   9,C  28)     55.6931         0.015156   
    230. D(H  26,C  25,N   9,H  10)    171.2127         0.015156   
    231. D(H  26,C  25,N   9,Fe  0)    -75.5154         0.015156   
    232. D(C  22,C  25,N   9,C  28)    176.2050         0.015156   
    233. D(C  22,C  25,N   9,H  10)    -68.2753         0.015156   
    234. D(C  22,C  25,N   9,Fe  0)     44.9966         0.015156   
    235. D(H  30,C  28,N   9,C  25)    -57.9528         0.014500   
    236. D(H  30,C  28,N   9,H  10)   -173.4694         0.014500   
    237. D(H  30,C  28,N   9,Fe  0)     66.9268         0.014500   
    238. D(H  29,C  28,N   9,C  25)     58.9078         0.014500   
    239. D(H  29,C  28,N   9,H  10)    -56.6088         0.014500   
    240. D(H  29,C  28,N   9,Fe  0)   -176.2126         0.014500   
    241. D(H  33,C  31,C  28,H  30)     64.0950         0.012208   
    242. D(H  33,C  31,C  28,H  29)    -52.7510         0.012208   
    243. D(H  33,C  31,C  28,N   9)   -174.3480         0.012208   
    244. D(H  32,C  31,C  28,H  30)   -179.5817         0.012208   
    245. D(H  32,C  31,C  28,H  29)     63.5724         0.012208   
    246. D(H  32,C  31,C  28,N   9)    -58.0246         0.012208   
    247. D(H  35,C  34,C  31,H  33)    -70.5593         0.011257   
    248. D(H  35,C  34,C  31,H  32)    173.0852         0.011257   
    249. D(N  11,C  34,C  31,H  33)    169.0011         0.011257   
    250. D(N  11,C  34,C  31,H  32)     52.6455         0.011257   
    251. D(N  11,C  34,C  31,C  28)    -69.1897         0.011257   
    252. D(H  36,C  34,N  11,Fe  0)   -170.6791         0.014505   
    253. D(H  35,C  34,N  11,C  37)    133.5922         0.014505   
    254. D(H  35,C  34,C  31,C  28)     51.2500         0.011257   
    255. D(H  35,C  34,N  11,Fe  0)    -51.5869         0.014505   
    256. D(C  31,C  34,N  11,C  37)   -105.9713         0.014505   
    257. D(C  31,C  34,N  11,Fe  0)     68.8496         0.014505   
    258. D(C  39,C  37,N  11,C  34)    166.4420         0.060048   
    259. D(C  39,C  37,N  11,Fe  0)     -8.1576         0.060048   
    260. D(H  38,C  37,N  11,C  34)    -13.5326         0.060048   
    261. D(H  38,C  37,N  11,Fe  0)    171.8678         0.060048   
    262. D(C  46,C  39,C  37,H  38)    159.2420         0.016878   
    263. D(C  46,C  39,C  37,N  11)    -20.7325         0.016878   
    264. D(C  40,C  39,C  37,H  38)    -15.2682         0.016878   
    265. D(C  40,C  39,C  37,N  11)    164.7572         0.016878   
    266. D(C  42,C  40,C  39,C  46)      4.1421         0.026644   
    267. D(C  42,C  40,C  39,C  37)    178.5381         0.026644   
    268. D(H  41,C  40,C  39,C  46)   -175.9034         0.026644   
    269. D(H  41,C  40,C  39,C  37)     -1.5073         0.026644   
    270. D(C  43,C  42,C  40,H  41)    177.4332         0.030146   
    271. D(C  43,C  42,C  40,C  39)     -2.6122         0.030146   
    272. D(Cl  5,C  42,C  40,H  41)     -1.9366         0.030146   
    273. D(Cl  5,C  42,C  40,C  39)    178.0179         0.030146   
    274. D(C  45,C  43,C  42,C  40)     -0.5648         0.029872   
    275. D(C  45,C  43,C  42,Cl  5)    178.8182         0.029872   
    276. D(H  44,C  43,C  42,C  40)    179.4309         0.029872   
    277. D(H  44,C  43,C  42,Cl  5)     -1.1861         0.029872   
    278. D(Cl  4,C  45,C  43,H  44)      0.7893         0.034684   
    279. D(Cl  4,C  45,C  43,C  42)   -179.2150         0.034684   
    280. D(C  46,C  45,C  43,H  44)   -177.6918         0.034684   
    281. D(C  46,C  45,C  43,C  42)      2.3039         0.034684   
    282. D(C  39,C  46,C  45,Cl  4)   -179.3149         0.021433   
    283. D(O   7,C  46,C  45,C  43)   -179.0194         0.021433   
    284. D(O   7,C  46,C  45,Cl  4)      2.4668         0.021433   
    285. D(C  45,C  46,C  39,C  40)     -2.4262         0.020662   
    286. D(C  45,C  46,C  39,C  37)   -176.7892         0.020662   
    287. D(O   7,C  46,C  39,C  40)    175.7586         0.020662   
    288. D(O   7,C  46,C  39,C  37)      1.3957         0.020662   
    289. D(C  45,C  46,O   7,Fe  0)   -135.8664         0.048974   
    290. D(C  39,C  46,C  45,C  43)     -0.8010         0.021433   
    291. D(C  39,C  46,O   7,Fe  0)     46.0520         0.048974   
    -----------------------------------------------------------------

Number of atoms                         .... 47
Number of degrees of freedom            .... 291


         *************************************************************
         *                GEOMETRY OPTIMIZATION CYCLE   1            *
         *************************************************************
---------------------------------
CARTESIAN COORDINATES (ANGSTROEM)
---------------------------------
  Fe     4.647000    6.633700    9.842800
  Cl     5.657200    4.813800    8.772100
  Cl     0.678800    4.063100    9.939300
  Cl    -1.070600    6.098300    5.298800
  Cl     1.591000    9.982500   10.644600
  Cl     0.167300    7.663200   15.254300
  O      2.900100    5.896900    9.608400
  O      3.911500    8.202400   10.791300
  N      4.383200    7.738800    8.082500
  N      6.543500    7.717200    9.772600
  H      6.412500    8.536100   10.295200
  N      5.229400    6.066500   11.784000
  C      2.070800    5.944000    8.597000
  C      0.922400    5.131900    8.603100
  C     -0.024900    5.170500    7.605500
  H     -0.774300    4.621000    7.646600
  C      0.151200    6.036400    6.540800
  C      1.258700    6.827800    6.459000
  H      1.370800    7.391500    5.727900
  C      2.235300    6.797600    7.476100
  C      3.378900    7.672900    7.303500
  H      3.378600    8.233200    6.561100
  C      5.450100    8.717700    7.838800
  H      5.245300    9.553100    8.287700
  H      5.531800    8.892800    6.888300
  C      6.741700    8.144900    8.373400
  H      7.013300    7.387100    7.833000
  H      7.441100    8.815700    8.330400
  C      7.756600    7.063300   10.319200
  H      8.496500    7.688800   10.270300
  H      7.978600    6.302100    9.760000
  C      7.614600    6.588500   11.752900
  H      7.386300    7.351100   12.306700
  H      8.476600    6.258800   12.052900
  C      6.572200    5.494600   11.983600
  H      6.716300    4.764200   11.361100
  H      6.652700    5.146100   12.885300
  C      4.507000    6.288900   12.818400
  H      4.774500    5.908900   13.623800
  C      3.299100    7.094400   12.819200
  C      2.433400    7.005800   13.905500
  H      2.619000    6.423500   14.606500
  C      1.300100    7.785900   13.933800
  C      1.042500    8.689400   12.926700
  H      0.269200    9.204900   12.953600
  C      1.913400    8.830800   11.893800
  C      3.085700    8.038400   11.773400

----------------------------
CARTESIAN COORDINATES (A.U.)
----------------------------
  NO LB      ZA    FRAG     MASS         X           Y           Z
   0 Fe   26.0000    0    55.850    8.781557   12.535876   18.600196
   1 Cl   17.0000    0    35.453   10.690559    9.096764   16.576867
   2 Cl   17.0000    0    35.453    1.282746    7.678146   18.782555
   3 Cl   17.0000    0    35.453   -2.023141   11.524117   10.013281
   4 Cl   17.0000    0    35.453    3.006554   18.864191   20.115379
   5 Cl   17.0000    0    35.453    0.316151   14.481349   28.826449
   6 O     8.0000    0    15.999    5.480395   11.143526   18.157245
   7 O     8.0000    0    15.999    7.391664   15.500290   20.392602
   8 N     7.0000    0    14.007    8.283048   14.624213   15.273711
   9 N     7.0000    0    14.007   12.365423   14.583395   18.467538
  10 H     1.0000    0     1.008   12.117869   16.130891   19.455108
  11 N     7.0000    0    14.007    9.882134   11.464024   22.268533
  12 C     6.0000    0    12.011    3.913245   11.232532   16.245976
  13 C     6.0000    0    12.011    1.743083    9.697886   16.257503
  14 C     6.0000    0    12.011   -0.047054    9.770829   14.372312
  15 H     1.0000    0     1.008   -1.463215    8.732424   14.449980
  16 C     6.0000    0    12.011    0.285727   11.407143   12.360321
  17 C     6.0000    0    12.011    2.378598   12.902672   12.205741
  18 H     1.0000    0     1.008    2.590437   13.967911   10.824162
  19 C     6.0000    0    12.011    4.224105   12.845602   14.127782
  20 C     6.0000    0    12.011    6.385196   14.499680   13.801615
  21 H     1.0000    0     1.008    6.384629   15.558493   12.398682
  22 C     6.0000    0    12.011   10.299196   16.474066   14.813185
  23 H     1.0000    0     1.008    9.912180   18.052743   15.661483
  24 H     1.0000    0     1.008   10.453587   16.804957   13.017001
  25 C     6.0000    0    12.011   12.739967   15.391630   15.823433
  26 H     1.0000    0     1.008   13.253216   13.959596   14.802225
  27 H     1.0000    0     1.008   14.061641   16.659259   15.742175
  28 C     6.0000    0    12.011   14.657850   13.347703   19.500462
  29 H     1.0000    0     1.008   16.056058   14.529726   19.408054
  30 H     1.0000    0     1.008   15.077369   11.909243   18.443727
  31 C     6.0000    0    12.011   14.389509   12.450461   22.209762
  32 H     1.0000    0     1.008   13.958084   13.891566   23.256293
  33 H     1.0000    0     1.008   16.018453   11.827418   22.776680
  34 C     6.0000    0    12.011   12.419658   10.383289   22.645722
  35 H     1.0000    0     1.008   12.691968    9.003033   21.469368
  36 H     1.0000    0     1.008   12.571781    9.724720   24.349688
  37 C     6.0000    0    12.011    8.516996   11.884299   24.223265
  38 H     1.0000    0     1.008    9.022497   11.166203   25.745251
  39 C     6.0000    0    12.011    6.234395   13.406473   24.224777
  40 C     6.0000    0    12.011    4.598460   13.239043   26.277587
  41 H     1.0000    0     1.008    4.949193   12.138656   27.602285
  42 C     6.0000    0    12.011    2.456833   14.713219   26.331066
  43 C     6.0000    0    12.011    1.970039   16.420586   24.427923
  44 H     1.0000    0     1.008    0.508714   17.394740   24.478756
  45 C     6.0000    0    12.011    3.615802   16.687794   22.476025
  46 C     6.0000    0    12.011    5.831128   15.190375   22.248502

--------------------------------
INTERNAL COORDINATES (ANGSTROEM)
--------------------------------
 Fe     0   0   0     0.000000000000     0.00000000     0.00000000
 Cl     1   0   0     2.340713254544     0.00000000     0.00000000
 Cl     1   2   0     4.729049360072    87.06783633     0.00000000
 Cl     3   1   2     5.360660374431    92.85452072   267.55244399
 Cl     1   2   3     4.603963583696   158.69582145   305.90962135
 Cl     5   1   2     5.353074655747    90.65099059   116.34768039
 O      1   2   3     1.910360492158    92.21524393   348.08294184
 O      1   2   3     1.975204341328   176.24058029   153.12096468
 N      1   2   3     2.095111581754    94.59541786   258.75577404
 N      1   2   3     2.185317491808    89.78554599   179.13259409
 H     10   1   2     0.980239241206   106.32576326   187.18994485
 N      1   2   3     2.104557682745    95.33296688    93.58250826
 C      7   1   2     1.308773036091   131.32801440   275.93335950
 C     13   7   1     1.406544055478   119.55266334   169.86427046
 C     14  13   7     1.376253250677   122.86444021   176.99600572
 H     15  14  13     0.930182680983   120.39412954   180.33748964
 C     15  14  13     1.383611256820   119.19196258     0.34664186
 C     17  15  14     1.363657379990   120.84556296     1.22452801
 H     18  17  15     0.929963069159   119.79109113   178.72152810
 C     18  17  15     1.410373003854   120.44311950   358.69829435
 C      9   1   2     1.272714539871   125.89555406    88.10841143
 H     21   9   1     0.930104262973   117.23342672   178.75454592
 C      9   1   2     1.468301913777   113.55413484   263.91763259
 H     23   9   1     0.970230596302   110.11286380   273.02388419
 H     23   9   1     0.969940797162   110.13339940   153.52652989
 C     10   1   2     1.476472542921   106.89173491    73.91492778
 H     26  10   1     0.969566686721   109.83962278   284.48464621
 H     26  10   1     0.970042267120   109.82268830   165.49351389
 C     10   1   2     1.482554680273   118.65804798   306.79869895
 H     29  10   1     0.970099721678   108.73009936   183.78737741
 H     29  10   1     0.970264953505   108.70865091    66.92680134
 C     29  10   1     1.516935967666   114.19942517   305.37582866
 H     32  29  10     0.969728874480   108.39976209   301.97536748
 H     32  29  10     0.970436030864   108.38293652   185.65201933
 C     12   1   2     1.473099321159   118.80734676    38.99631097
 H     35  12   1     0.970440734924   109.91580396   308.41312319
 H     35  12   1     0.970049168857   109.94208108   189.32091264
 C     12   1   2     1.281134996790   122.81366229   213.56280716
 H     38  12   1     0.929852359248   117.78700727   171.86781663
 C     38  12   1     1.451844791980   124.46400859   351.84236541
 C     40  38  12     1.391881510762   118.85355870   164.75724621
 H     41  40  38     0.930011639712   120.26516136   358.49266170
 C     41  40  38     1.376127098055   119.48392577   178.53813591
 C     43  41  40     1.377287341117   120.72159095   357.38775066
 H     44  43  41     0.929761663008   119.87560960   179.43092145
 C     44  43  41     1.358434091151   120.28924052   359.43521331
 C      8   1   7     1.293584960488   120.10579466    50.34530156

---------------------------
INTERNAL COORDINATES (A.U.)
---------------------------
 Fe     0   0   0     0.000000000000     0.00000000     0.00000000
 Cl     1   0   0     4.423307009128     0.00000000     0.00000000
 Cl     1   2   0     8.936608164332    87.06783633     0.00000000
 Cl     3   1   2    10.130180004639    92.85452072   267.55244399
 Cl     1   2   3     8.700230303732   158.69582145   305.90962135
 Cl     5   1   2    10.115845073796    90.65099059   116.34768039
 O      1   2   3     3.610058147243    92.21524393   348.08294184
 O      1   2   3     3.732595263642   176.24058029   153.12096468
 N      1   2   3     3.959187109522    94.59541786   258.75577404
 N      1   2   3     4.129651575184    89.78554599   179.13259409
 H     10   1   2     1.852383711602   106.32576326   187.18994485
 N      1   2   3     3.977037653428    95.33296688    93.58250826
 C      7   1   2     2.473222609673   131.32801440   275.93335950
 C     13   7   1     2.657983060148   119.55266334   169.86427046
 C     14  13   7     2.600741734699   122.86444021   176.99600572
 H     15  14  13     1.757790521574   120.39412954   180.33748964
 C     15  14  13     2.614646351201   119.19196258     0.34664186
 C     17  15  14     2.576938988681   120.84556296     1.22452801
 H     18  17  15     1.757375515372   119.79109113   178.72152810
 C     18  17  15     2.665218723960   120.44311950   358.69829435
 C      9   1   2     2.405081927016   125.89555406    88.10841143
 H     21   9   1     1.757642333011   117.23342672   178.75454592
 C      9   1   2     2.774688498950   113.55413484   263.91763259
 H     23   9   1     1.833470113761   110.11286380   273.02388419
 H     23   9   1     1.832922472754   110.13339940   153.52652989
 C     10   1   2     2.790128750375   106.89173491    73.91492778
 H     26  10   1     1.832215506477   109.83962278   284.48464621
 H     26  10   1     1.833114223186   109.82268830   165.49351389
 C     10   1   2     2.801622324280   118.65804798   306.79869895
 H     29  10   1     1.833222796565   108.73009936   183.78737741
 H     29  10   1     1.833535039466   108.70865091    66.92680134
 C     29  10   1     2.866593541584   114.19942517   305.37582866
 H     32  29  10     1.832521996923   108.39976209   301.97536748
 H     32  29  10     1.833858328823   108.38293652   185.65201933
 C     12   1   2     2.783754285056   118.80734676    38.99631097
 H     35  12   1     1.833867218208   109.91580396   308.41312319
 H     35  12   1     1.833127265578   109.94208108   189.32091264
 C     12   1   2     2.420994284515   122.81366229   213.56280716
 H     38  12   1     1.757166303960   117.78700727   171.86781663
 C     38  12   1     2.743589045802   124.46400859   351.84236541
 C     40  38  12     2.630274866208   118.85355870   164.75724621
 H     41  40  38     1.757467300415   120.26516136   358.49266170
 C     41  40  38     2.600503340791   119.48392577   178.53813591
 C     43  41  40     2.602695882427   120.72159095   357.38775066
 H     44  43  41     1.756994912905   119.87560960   179.43092145
 C     44  43  41     2.567068403257   120.28924052   359.43521331
 C      8   1   7     2.444521306281   120.10579466    50.34530156

---------------------
BASIS SET INFORMATION
---------------------
There are 6 groups of distinct atoms

 Group   1 Type Fe  : 17s11p7d1f contracted to 6s4p4d1f pattern {842111/6311/4111/1}
 Group   2 Type Cl  : 14s9p3d1f contracted to 5s5p2d1f pattern {73211/51111/21/1}
 Group   3 Type O   : 11s6p2d1f contracted to 5s3p2d1f pattern {62111/411/11/1}
 Group   4 Type N   : 11s6p2d1f contracted to 5s3p2d1f pattern {62111/411/11/1}
 Group   5 Type H   : 5s1p contracted to 3s1p pattern {311/1}
 Group   6 Type C   : 11s6p2d1f contracted to 5s3p2d1f pattern {62111/411/11/1}

Atom   0Fe   basis set group =>   1
Atom   1Cl   basis set group =>   2
Atom   2Cl   basis set group =>   2
Atom   3Cl   basis set group =>   2
Atom   4Cl   basis set group =>   2
Atom   5Cl   basis set group =>   2
Atom   6O    basis set group =>   3
Atom   7O    basis set group =>   3
Atom   8N    basis set group =>   4
Atom   9N    basis set group =>   4
Atom  10H    basis set group =>   5
Atom  11N    basis set group =>   4
Atom  12C    basis set group =>   6
Atom  13C    basis set group =>   6
Atom  14C    basis set group =>   6
Atom  15H    basis set group =>   5
Atom  16C    basis set group =>   6
Atom  17C    basis set group =>   6
Atom  18H    basis set group =>   5
Atom  19C    basis set group =>   6
Atom  20C    basis set group =>   6
Atom  21H    basis set group =>   5
Atom  22C    basis set group =>   6
Atom  23H    basis set group =>   5
Atom  24H    basis set group =>   5
Atom  25C    basis set group =>   6
Atom  26H    basis set group =>   5
Atom  27H    basis set group =>   5
Atom  28C    basis set group =>   6
Atom  29H    basis set group =>   5
Atom  30H    basis set group =>   5
Atom  31C    basis set group =>   6
Atom  32H    basis set group =>   5
Atom  33H    basis set group =>   5
Atom  34C    basis set group =>   6
Atom  35H    basis set group =>   5
Atom  36H    basis set group =>   5
Atom  37C    basis set group =>   6
Atom  38H    basis set group =>   5
Atom  39C    basis set group =>   6
Atom  40C    basis set group =>   6
Atom  41H    basis set group =>   5
Atom  42C    basis set group =>   6
Atom  43C    basis set group =>   6
Atom  44H    basis set group =>   5
Atom  45C    basis set group =>   6
Atom  46C    basis set group =>   6
---------------------------------
AUXILIARY/J BASIS SET INFORMATION
---------------------------------
There are 6 groups of distinct atoms

 Group   1 Type Fe  : 19s5p5d3f3g contracted to 8s5p5d2f3g pattern {121111111/11111/11111/21/111}
 Group   2 Type Cl  : 14s5p5d2f1g contracted to 8s4p3d1f1g pattern {71111111/2111/311/2/1}
 Group   3 Type O   : 12s5p4d2f1g contracted to 6s4p3d1f1g pattern {711111/2111/211/2/1}
 Group   4 Type N   : 12s5p4d2f1g contracted to 6s4p3d1f1g pattern {711111/2111/211/2/1}
 Group   5 Type H   : 5s2p1d contracted to 3s1p1d pattern {311/2/1}
 Group   6 Type C   : 12s5p4d2f1g contracted to 6s4p3d1f1g pattern {711111/2111/211/2/1}

Atom   0Fe   basis set group =>   1
Atom   1Cl   basis set group =>   2
Atom   2Cl   basis set group =>   2
Atom   3Cl   basis set group =>   2
Atom   4Cl   basis set group =>   2
Atom   5Cl   basis set group =>   2
Atom   6O    basis set group =>   3
Atom   7O    basis set group =>   3
Atom   8N    basis set group =>   4
Atom   9N    basis set group =>   4
Atom  10H    basis set group =>   5
Atom  11N    basis set group =>   4
Atom  12C    basis set group =>   6
Atom  13C    basis set group =>   6
Atom  14C    basis set group =>   6
Atom  15H    basis set group =>   5
Atom  16C    basis set group =>   6
Atom  17C    basis set group =>   6
Atom  18H    basis set group =>   5
Atom  19C    basis set group =>   6
Atom  20C    basis set group =>   6
Atom  21H    basis set group =>   5
Atom  22C    basis set group =>   6
Atom  23H    basis set group =>   5
Atom  24H    basis set group =>   5
Atom  25C    basis set group =>   6
Atom  26H    basis set group =>   5
Atom  27H    basis set group =>   5
Atom  28C    basis set group =>   6
Atom  29H    basis set group =>   5
Atom  30H    basis set group =>   5
Atom  31C    basis set group =>   6
Atom  32H    basis set group =>   5
Atom  33H    basis set group =>   5
Atom  34C    basis set group =>   6
Atom  35H    basis set group =>   5
Atom  36H    basis set group =>   5
Atom  37C    basis set group =>   6
Atom  38H    basis set group =>   5
Atom  39C    basis set group =>   6
Atom  40C    basis set group =>   6
Atom  41H    basis set group =>   5
Atom  42C    basis set group =>   6
Atom  43C    basis set group =>   6
Atom  44H    basis set group =>   5
Atom  45C    basis set group =>   6
Atom  46C    basis set group =>   6


           ************************************************************
           *        Program running with 16 parallel MPI-processes    *
           *              working on a common directory               *
           ************************************************************
------------------------------------------------------------------------------
                             ORCA STARTUP CALCULATIONS
                           -- RI-GTO INTEGRALS CHOSEN --
------------------------------------------------------------------------------
------------------------------------------------------------------------------
                   ___                                                        
                  /   \      - P O W E R E D   B Y -                         
                 /     \                                                     
                 |  |  |   _    _      __       _____    __    __             
                 |  |  |  | |  | |    /  \     |  _  \  |  |  /  |          
                  \  \/   | |  | |   /    \    | | | |  |  | /  /          
                 / \  \   | |__| |  /  /\  \   | |_| |  |  |/  /          
                |  |  |   |  __  | /  /__\  \  |    /   |      \           
                |  |  |   | |  | | |   __   |  |    \   |  |\   \          
                \     /   | |  | | |  |  |  |  | |\  \  |  | \   \       
                 \___/    |_|  |_| |__|  |__|  |_| \__\ |__|  \__/        
                                                                              
                      - O R C A' S   B I G   F R I E N D -                    
                                      &                                       
                       - I N T E G R A L  F E E D E R -                       
                                                                              
 v1 FN, 2020, v2 2021, v3 2022-2024                                           
------------------------------------------------------------------------------


----------------------
SHARK INTEGRAL PACKAGE
----------------------

Number of atoms                             ...     47
Number of basis functions                   ...   1076
Number of shells                            ...    412
Maximum angular momentum                    ...      3
Integral batch strategy                     ... SHARK/LIBINT Hybrid
RI-J (if used) integral strategy            ... SPLIT-RIJ (Revised 2003 algorithm where possible)
Printlevel                                  ...      1
Contraction scheme used                     ... SEGMENTED contraction
Prescreening option                         ... SCHWARTZ
   Thresh                                   ... 2.500e-11
   Tcut                                     ... 2.500e-12
   Tpresel                                  ... 2.500e-12 
Coulomb Range Separation                    ... NOT USED
Exchange Range Separation                   ... NOT USED
Multipole approximations                    ... NOT USED
Finite Nucleus Model                        ... NOT USED
CABS basis                                  ... NOT available
Auxiliary Coulomb fitting basis             ... AVAILABLE
   # of basis functions in Aux-J            ...   1707
   # of shells in Aux-J                     ...    553
   Maximum angular momentum in Aux-J        ...      4
Auxiliary J/K fitting basis                 ... NOT available
Auxiliary Correlation fitting basis         ... NOT available
Auxiliary 'external' fitting basis          ... NOT available

Checking pre-screening integrals            ... done (  0.0 sec) Dimension = 412
Check shell pair data                       ... done (  0.0 sec)
Shell pair information
Shell pair cut-off parameter TPreSel        ...   2.5e-12
Total number of shell pairs                 ...     85078
Shell pairs after pre-screening             ...     55036
Total number of primitive shell pairs       ...    284699
Primitive shell pairs kept                  ...    113460
          la=0 lb=0:  12819 shell pairs
          la=1 lb=0:  15909 shell pairs
          la=1 lb=1:   5011 shell pairs
          la=2 lb=0:   7906 shell pairs
          la=2 lb=1:   5021 shell pairs
          la=2 lb=2:   1326 shell pairs
          la=3 lb=0:   3430 shell pairs
          la=3 lb=1:   2229 shell pairs
          la=3 lb=2:   1132 shell pairs
          la=3 lb=3:    253 shell pairs

Calculating one electron integrals          ... done (  0.1 sec)
done (  0.2 sec)
Calculating Nuclear repulsion               ... done (  0.0 sec) ENN=   4744.006242245874 Eh

Diagonalization of the overlap matrix:
Smallest eigenvalue                        ... 6.203e-06
Time for diagonalization                   ...    0.152 sec
Threshold for overlap eigenvalues          ... 1.000e-07
Number of eigenvalues below threshold      ... 0
Time for construction of square roots      ...    0.170 sec
Total time needed                          ...    0.347 sec

-------------------
DFT GRID GENERATION
-------------------

General Integration Accuracy     IntAcc      ... 4.959
Radial Grid Type                 RadialGrid  ... OptM3 with GC (2021)
Angular Grid (max. ang.)         AngularGrid ... 6 (Lebedev-590)
Angular grid pruning method      GridPruning ... 4 (adaptive)
Weight generation scheme         WeightScheme... mBecke (2022)
Basis function cutoff            BFCut       ... 1.0000e-11
Integration weight cutoff        WCut        ... 1.0000e-14
Partially contracted basis set               ... off
Rotationally invariant grid construction     ... off
Angular grids for H and He will be reduced by one unit
Core-polarized basis detected: some atoms will have their core
                               angular grid increased.

Total number of grid points                  ...   587715
Total number of batches                      ...     9206
Average number of points per batch           ...       63
Average number of grid points per atom       ...    12505

--------------------
COSX GRID GENERATION
--------------------

GRIDX 1
-------
General Integration Accuracy     IntAcc      ... 4.020
Radial Grid Type                 RadialGrid  ... OptM3 with GC (2021)
Angular Grid (max. ang.)         AngularGrid ... 2 (Lebedev-110)
Angular grid pruning method      GridPruning ... 4 (adaptive)
Weight generation scheme         WeightScheme... mBecke (2022)
Basis function cutoff            BFCut       ... 1.0000e-11
Integration weight cutoff        WCut        ... 1.0000e-14
Partially contracted basis set               ... on
Rotationally invariant grid construction     ... off
Angular grids for H and He will be reduced by one unit
Core-polarized basis detected: some atoms will have their core
                               angular grid increased.

Total number of grid points                  ...    68634
Total number of batches                      ...      560
Average number of points per batch           ...      122
Average number of grid points per atom       ...     1460
UseSFitting                                  ... on

GRIDX 2
-------
General Integration Accuracy     IntAcc      ... 4.338
Radial Grid Type                 RadialGrid  ... OptM3 with GC (2021)
Angular Grid (max. ang.)         AngularGrid ... 3 (Lebedev-194)
Angular grid pruning method      GridPruning ... 4 (adaptive)
Weight generation scheme         WeightScheme... mBecke (2022)
Basis function cutoff            BFCut       ... 1.0000e-11
Integration weight cutoff        WCut        ... 1.0000e-14
Partially contracted basis set               ... on
Rotationally invariant grid construction     ... off
Angular grids for H and He will be reduced by one unit
Core-polarized basis detected: some atoms will have their core
                               angular grid increased.

Total number of grid points                  ...   146971
Total number of batches                      ...     1173
Average number of points per batch           ...      125
Average number of grid points per atom       ...     3127
UseSFitting                                  ... on

GRIDX 3
-------
General Integration Accuracy     IntAcc      ... 4.871
Radial Grid Type                 RadialGrid  ... OptM3 with GC (2021)
Angular Grid (max. ang.)         AngularGrid ... 4 (Lebedev-302)
Angular grid pruning method      GridPruning ... 4 (adaptive)
Weight generation scheme         WeightScheme... mBecke (2022)
Basis function cutoff            BFCut       ... 1.0000e-11
Integration weight cutoff        WCut        ... 1.0000e-14
Partially contracted basis set               ... on
Rotationally invariant grid construction     ... off
Angular grids for H and He will be reduced by one unit
Core-polarized basis detected: some atoms will have their core
                               angular grid increased.

Total number of grid points                  ...   269289
Total number of batches                      ...     2130
Average number of points per batch           ...      126
Average number of grid points per atom       ...     5730
UseSFitting                                  ... on
Initializing property integral containers    ... done (  0.0 sec)

SHARK setup successfully completed in  11.1 seconds

Maximum memory used throughout the entire STARTUP-calculation: 187.7 MB


           ************************************************************
           *        Program running with 16 parallel MPI-processes    *
           *              working on a common directory               *
           ************************************************************
-------------------------------------------------------------------------------
                                 ORCA GUESS
                   Start orbitals & Density for SCF / CASSCF
-------------------------------------------------------------------------------

------------
SCF SETTINGS
------------
Hamiltonian:
 Density Functional     Method          .... DFT(GTOs)
 Exchange Functional    Exchange        .... PBE
   PBE kappa parameter   XKappa         ....  0.804000
   PBE mue parameter    XMuePBE         ....  0.219520
 Correlation Functional Correlation     .... PBE
   PBE beta parameter  CBetaPBE         ....  0.066725
 LDA part of GGA corr.  LDAOpt          .... PW91-LDA
 Gradients option       PostSCFGGA      .... off
 Hybrid DFT is turned on
   Fraction HF Exchange ScalHFX         ....  0.250000
   Scaling of DF-GGA-X  ScalDFX         ....  0.750000
   Scaling of DF-GGA-C  ScalDFC         ....  1.000000
   Scaling of DF-LDA-C  ScalLDAC        ....  1.000000
   Perturbative correction              ....  0.000000
   NL short-range parameter             ....  6.900000
 RI-approximation to the Coulomb term is turned on
   Number of AuxJ basis functions       .... 1707
   RIJ-COSX (HFX calculated with COS-X)).... on


General Settings:
 Integral files         IntName         .... UJAZOX-S6
 Hartree-Fock type      HFTyp           .... UHF
 Total Charge           Charge          ....    0
 Multiplicity           Mult            ....    6
 Number of Electrons    NEL             ....  279
 Basis Dimension        Dim             .... 1076
 Nuclear Repulsion      ENuc            ....   4744.0062422459 Eh

Convergence Acceleration:
 AO-DIIS                CNVDIIS         .... on
   Start iteration      DIISMaxIt       ....    12
   Startup error        DIISStart       ....  0.200000
   # of expansion vecs  DIISMaxEq       ....     5
   Bias factor          DIISBfac        ....   1.050
   Max. coefficient     DIISMaxC        ....  10.000
 MO-DIIS                CNVKDIIS        .... off
 Trust-Rad. Augm. Hess. CNVTRAH         .... auto
   Auto Start mean grad. ratio tolernc. ....  1.125000
   Auto Start start iteration           ....    50
   Auto Start num. interpolation iter.  ....    10
   Max. Number of Micro iterations      ....    24
   Max. Number of Macro iterations      .... Maxiter - #DIIS iter
   Number of Davidson start vectors     ....     2
   Converg. threshold    (grad. norm)   ....   1.000e-05
   Grad. Scal. Fac. for Micro threshold ....   0.100
   Minimum threshold for Micro iter.    ....   1.000e-02
   NR start threshold (gradient norm)   ....   1.000e-04
   Initial trust radius                 ....   0.400
   Minimum AH scaling param. (alpha)    ....   1.000
   Maximum AH scaling param. (alpha)    .... 1000.000
   Quad. conv. algorithm                .... NR
   White noise on init. David. guess    .... on
   Maximum white noise                  ....   0.010
   Pseudo random numbers                .... off
   Inactive MOs                         .... canonical
   Orbital update algorithm             .... Taylor
   Preconditioner                       .... Diag
   Full preconditioner red. dimension   ....   250
 SOSCF                  CNVSOSCF        .... on
   Start iteration      SOSCFMaxIt      ....   150
   Startup grad/error   SOSCFStart      ....  0.003300
   Hessian update       SOSCFHessUp     .... L-BFGS
 Level Shifting         CNVShift        .... on
   Level shift para.    LevelShift      ....    0.2500
   Turn off err/grad.   ShiftErr        ....    0.0010
 Zerner damping         CNVZerner       .... off
 Static damping         CNVDamp         .... on
   Fraction old density DampFac         ....    0.7000
   Max. Damping (<1)    DampMax         ....    0.9800
   Min. Damping (>=0)   DampMin         ....    0.0000
   Turn off err/grad.   DampErr         ....    0.1000

SCF Procedure:
 Maximum # iterations   MaxIter         ....   125
 SCF integral mode      SCFMode         .... Direct
   Integral package                     .... SHARK and LIBINT hybrid scheme
 Reset frequency        DirectResetFreq ....    20
 Integral Threshold     Thresh          ....  2.500e-11 Eh
 Primitive CutOff       TCut            ....  2.500e-12 Eh

Convergence Tolerance:
 Convergence Check Mode ConvCheckMode   .... Total+1el-Energy
 Convergence forced     ConvForced      .... 0
 Energy Change          TolE            ....  1.000e-08 Eh
 1-El. energy change                    ....  1.000e-05 Eh
 Orbital Gradient       TolG            ....  1.000e-05
 Orbital Rotation angle TolX            ....  1.000e-05
 DIIS Error             TolErr          ....  5.000e-07

------------------------------
INITIAL GUESS: MODEL POTENTIAL
------------------------------
Loading Hartree-Fock densities                     ... done
Calculating cut-offs                               ... done
Initializing the effective Hamiltonian             ... done
Setting up the integral package (SHARK)            ... done
done (   0.4 sec)
Making the grid                                    ... done (   0.4 sec)
Mapping shells                                     ... done
Starting the XC term evaluation                    ... done (   0.3 sec)
  promolecular density results
     # of electrons  =    278.992835907
     EX              =   -329.829282922
     EC              =    -10.286362734
     EX+EC           =   -340.115645657
done (   0.1 sec)
done (   0.2 sec)
Back transforming the eigenvectors                 ... done (   0.1 sec)
done
                      ------------------
                      INITIAL GUESS DONE (   1.7 sec)
                      ------------------
             **** ENERGY FILE WAS UPDATED (UJAZOX-S6.en.tmp) ****
Finished Guess after   2.2 sec
Maximum memory used throughout the entire GUESS-calculation: 105.8 MB


           ************************************************************
           *        Program running with 16 parallel MPI-processes    *
           *              working on a common directory               *
           ************************************************************

-------------------------------------------------------------------------------------------
                                      ORCA LEAN-SCF
                              memory conserving SCF solver
-------------------------------------------------------------------------------------------

----------------------------------------D-I-I-S--------------------------------------------
Iteration    Energy (Eh)           Delta-E    RMSDP     MaxDP     DIISErr   Damp  Time(sec)
-------------------------------------------------------------------------------------------
               ***  Starting incremental Fock matrix formation  ***
    1    -4610.0579217738486477     0.00e+00  1.49e-03  4.03e-01  4.18e-01  0.700  29.8
Warning: op=0 Small HOMO/LUMO gap (  -0.552) - skipping pre-diagonalization
         LevelShift set to 0.652 Eh
         Will do a full diagonalization
    2    -4610.6011841386916785    -5.43e-01  7.80e-04  1.18e-01  1.88e-01  0.700  16.4
                               ***Turning on AO-DIIS***
    3    -4610.9220301291170472    -3.21e-01  5.16e-04  8.83e-02  7.54e-02  0.700  16.1
    4    -4611.1429662066329911    -2.21e-01  1.03e-03  1.92e-01  4.59e-02  0.000  15.2
    5    -4611.6218674929659755    -4.79e-01  3.34e-04  4.11e-02  8.46e-02  0.000  16.3
    6    -4611.6635709931069869    -4.17e-02  2.48e-04  3.14e-02  8.42e-02  0.000  14.6
    7    -4611.7109439305932028    -4.74e-02  2.38e-04  2.58e-02  4.97e-02  0.000  14.0
    8    -4611.7480049276855425    -3.71e-02  1.94e-04  1.89e-02  3.32e-02  0.000  13.9
    9    -4611.7766570258081629    -2.87e-02  1.53e-04  1.25e-02  1.69e-02  0.000  13.7
   10    -4611.7969219369952043    -2.03e-02  1.22e-04  1.02e-02  1.18e-02  0.000  13.5
   11    -4611.8117766104587645    -1.49e-02  1.01e-04  7.56e-03  7.56e-03  0.000  14.3
   12    -4611.8222743774185801    -1.05e-02  8.71e-05  8.27e-03  6.19e-03  0.000  13.4
   13    -4611.8297594142368325    -7.49e-03  6.32e-05  4.09e-03  4.64e-03  0.000  12.9
   14    -4611.8348671295534587    -5.11e-03  6.18e-05  5.79e-03  3.82e-03  0.000  12.5
   15    -4611.8384650054540543    -3.60e-03  4.09e-05  2.70e-03  4.31e-03  0.000  12.8
                              *** Initializing SOSCF ***
---------------------------------------S-O-S-C-F--------------------------------------
Iteration    Energy (Eh)           Delta-E    RMSDP     MaxDP     MaxGrad    Time(sec)
--------------------------------------------------------------------------------------
   16    -4611.8409177685625764    -2.45e-03  3.87e-05  2.67e-03  2.76e-03    14.6
               *** Restarting incremental Fock matrix formation ***
   17    -4611.8426052147606242    -1.69e-03  1.26e-04  1.06e-02  8.96e-03    29.9
   18    -4611.8454628037034126    -2.86e-03  1.74e-04  1.91e-02  5.91e-03    22.9
   19    -4611.8419043795638572     3.56e-03  1.25e-04  1.45e-02  1.42e-02    22.7
   20    -4611.8463387525862345    -4.43e-03  2.61e-05  1.64e-03  9.36e-04    22.0
   21    -4611.8463207580625749     1.80e-05  1.37e-05  8.79e-04  9.17e-04    18.7
   22    -4611.8464072645965643    -8.65e-05  9.54e-06  8.94e-04  1.47e-04    17.4
   23    -4611.8464047206489340     2.54e-06  4.85e-06  5.32e-04  2.14e-04    15.9
   24    -4611.8464119655509421    -7.24e-06  3.37e-06  4.38e-04  7.00e-05    14.5
   25    -4611.8464117214407452     2.44e-07  1.89e-06  1.43e-04  7.79e-05    14.1
   26    -4611.8464123346911947    -6.13e-07  3.16e-06  3.84e-04  1.75e-05    12.7
   27    -4611.8464124237543729    -8.91e-08  2.26e-06  3.16e-04  1.72e-05    12.2
   28    -4611.8464125377795426    -1.14e-07  5.66e-06  1.23e-03  6.36e-06    11.5
   29    -4611.8464124153506418     1.22e-07  2.54e-06  5.43e-04  7.38e-06    11.8
   30    -4611.8464124259226082    -1.06e-08  1.90e-06  2.42e-04  2.77e-06    10.2
   31    -4611.8464124156635080     1.03e-08  1.82e-06  2.13e-04  1.35e-06    10.2
                  *** Gradient check signals convergence ***

               *****************************************************
               *                     SUCCESS                       *
               *           SCF CONVERGED AFTER  31 CYCLES          *
               *****************************************************

 done (   39.656 sec)
Old exchange energy                            :    -83.542012559 Eh
New exchange energy                            :    -83.542004439 Eh
Exchange energy change after final integration :      0.000008120 Eh
Total energy after final integration           :  -4611.846404296 Eh
             **** ENERGY FILE WAS UPDATED (UJAZOX-S6.en.tmp) ****

----------------
TOTAL SCF ENERGY
----------------

Total Energy       :      -4611.84640429577303 Eh         -125494.72069 eV

Components:
Nuclear Repulsion  :       4744.00624224587409 Eh          129090.97271 eV
Electronic Energy  :      -9355.85265466153760 Eh         -254585.69362 eV
One Electron Energy:     -15805.47889456693702 Eh         -430088.94602 eV
Two Electron Energy:       6449.62623990539942 Eh          175503.25240 eV

Virial components:
Potential Energy   :      -9218.46279270461855 Eh         -250847.12541 eV
Kinetic Energy     :       4606.61638840884552 Eh          125352.40472 eV
Virial Ratio       :          2.00113532698318

DFT components:
N(Alpha)           :      142.000011828302 electrons
N(Beta)            :      137.000012757158 electrons
N(Total)           :      279.000024585461 electrons
E(X)               :     -249.708756835454 Eh       
E(C)               :      -10.233721737981 Eh       
E(XC)              :     -259.942478573435 Eh       

---------------
SCF CONVERGENCE
---------------

  Last Energy change         ...   -1.0259e-08  Tolerance :   1.0000e-08
  Last MAX-Density change    ...    2.1284e-04  Tolerance :   1.0000e-07
  Last RMS-Density change    ...    1.8181e-06  Tolerance :   5.0000e-09
  Last DIIS Error            ...    2.7630e-03  Tolerance :   5.0000e-07
  Last Orbital Gradient      ...    1.3497e-06  Tolerance :   1.0000e-05
  Last Orbital Rotation      ...    7.1686e-06  Tolerance :   1.0000e-05


----------------------
UHF SPIN CONTAMINATION
----------------------

Warning: in a DFT calculation there is little theoretical justification to 
         calculate <S**2> as in Hartree-Fock theory. We will do it anyways
         but you should keep in mind that the values have only limited relevance

Expectation value of <S**2>     :     8.760600
Ideal value S*(S+1) for S=2.5   :     8.750000
Deviation                       :     0.010600

----------------
ORBITAL ENERGIES
----------------
                 SPIN UP ORBITALS
  NO   OCC          E(Eh)            E(eV) 
   0   1.0000    -256.462161     -6978.6902 
   1   1.0000    -101.704753     -2767.5270 
   2   1.0000    -101.703703     -2767.4985 
   3   1.0000    -101.703098     -2767.4820 
   4   1.0000    -101.696303     -2767.2971 
   5   1.0000    -101.622635     -2765.2925 
   6   1.0000     -30.286806      -824.1459 
   7   1.0000     -26.106170      -710.3850 
   8   1.0000     -26.103818      -710.3210 
   9   1.0000     -26.102650      -710.2892 
  10   1.0000     -19.196831      -522.3723 
  11   1.0000     -19.192260      -522.2479 
  12   1.0000     -14.434400      -392.7800 
  13   1.0000     -14.424290      -392.5049 
  14   1.0000     -14.422488      -392.4559 
  15   1.0000     -10.299504      -280.2637 
  16   1.0000     -10.299351      -280.2596 
  17   1.0000     -10.285143      -279.8730 
  18   1.0000     -10.284760      -279.8625 
  19   1.0000     -10.283788      -279.8361 
  20   1.0000     -10.282680      -279.8060 
  21   1.0000     -10.282249      -279.7942 
  22   1.0000     -10.281989      -279.7871 
  23   1.0000     -10.257937      -279.1326 
  24   1.0000     -10.255391      -279.0634 
  25   1.0000     -10.251105      -278.9468 
  26   1.0000     -10.249074      -278.8915 
  27   1.0000     -10.247224      -278.8411 
  28   1.0000     -10.246231      -278.8141 
  29   1.0000     -10.230314      -278.3810 
  30   1.0000     -10.229132      -278.3488 
  31   1.0000     -10.229059      -278.3468 
  32   1.0000     -10.227913      -278.3157 
  33   1.0000     -10.224752      -278.2296 
  34   1.0000      -9.530220      -259.3305 
  35   1.0000      -9.529218      -259.3032 
  36   1.0000      -9.528579      -259.2858 
  37   1.0000      -9.521750      -259.1000 
  38   1.0000      -9.449066      -257.1222 
  39   1.0000      -7.264312      -197.6720 
  40   1.0000      -7.263302      -197.6445 
  41   1.0000      -7.262683      -197.6277 
  42   1.0000      -7.256141      -197.4496 
  43   1.0000      -7.255998      -197.4457 
  44   1.0000      -7.255938      -197.4441 
  45   1.0000      -7.255136      -197.4223 
  46   1.0000      -7.254998      -197.4185 
  47   1.0000      -7.254672      -197.4096 
  48   1.0000      -7.254179      -197.3962 
  49   1.0000      -7.247817      -197.2231 
  50   1.0000      -7.247272      -197.2083 
  51   1.0000      -7.179806      -195.3725 
  52   1.0000      -7.177483      -195.3093 
  53   1.0000      -7.176859      -195.2923 
  54   1.0000      -3.713276      -101.0434 
  55   1.0000      -2.478650       -67.4475 
  56   1.0000      -2.472796       -67.2882 
  57   1.0000      -2.470825       -67.2346 
  58   1.0000      -1.059269       -28.8242 
  59   1.0000      -1.051160       -28.6035 
  60   1.0000      -1.009787       -27.4777 
  61   1.0000      -0.994508       -27.0619 
  62   1.0000      -0.984025       -26.7767 
  63   1.0000      -0.930155       -25.3108 
  64   1.0000      -0.927871       -25.2487 
  65   1.0000      -0.891764       -24.2661 
  66   1.0000      -0.888140       -24.1675 
  67   1.0000      -0.869364       -23.6566 
  68   1.0000      -0.856825       -23.3154 
  69   1.0000      -0.845949       -23.0194 
  70   1.0000      -0.821680       -22.3591 
  71   1.0000      -0.797154       -21.6917 
  72   1.0000      -0.786869       -21.4118 
  73   1.0000      -0.761715       -20.7273 
  74   1.0000      -0.758151       -20.6303 
  75   1.0000      -0.745623       -20.2894 
  76   1.0000      -0.738713       -20.1014 
  77   1.0000      -0.717498       -19.5241 
  78   1.0000      -0.701102       -19.0779 
  79   1.0000      -0.682919       -18.5832 
  80   1.0000      -0.668393       -18.1879 
  81   1.0000      -0.644730       -17.5440 
  82   1.0000      -0.643411       -17.5081 
  83   1.0000      -0.619075       -16.8459 
  84   1.0000      -0.616461       -16.7748 
  85   1.0000      -0.582666       -15.8552 
  86   1.0000      -0.569402       -15.4942 
  87   1.0000      -0.563299       -15.3281 
  88   1.0000      -0.558614       -15.2007 
  89   1.0000      -0.550744       -14.9865 
  90   1.0000      -0.548277       -14.9194 
  91   1.0000      -0.534317       -14.5395 
  92   1.0000      -0.521549       -14.1921 
  93   1.0000      -0.517700       -14.0873 
  94   1.0000      -0.509275       -13.8581 
  95   1.0000      -0.506367       -13.7790 
  96   1.0000      -0.499729       -13.5983 
[...]
103:   1376.71   0.003027   15.30  0.000686  ( 0.016432 -0.015426 -0.013349)
104:   1391.17   0.000247    1.25  0.000055  ( 0.001925  0.001244 -0.007084)
105:   1408.81   0.001179    5.96  0.000261  (-0.001791  0.001356  0.016001)
106:   1415.54   0.002012   10.17  0.000443  (-0.009771 -0.002988 -0.018414)
107:   1430.99   0.000735    3.72  0.000160  ( 0.011689  0.001916 -0.004473)
108:   1456.49   0.015388   77.76  0.003297  ( 0.005602 -0.008326  0.056536)
109:   1457.50   0.000034    0.17  0.000007  (-0.001844  0.001684  0.000970)
110:   1461.21   0.008099   40.93  0.001730  ( 0.024895 -0.002938  0.033184)
111:   1471.81   0.001726    8.72  0.000366  (-0.008538  0.012847 -0.011310)
112:   1477.58   0.001379    6.97  0.000291  ( 0.010649  0.007443 -0.011070)
113:   1483.63   0.000452    2.28  0.000095  ( 0.002674  0.002670  0.008984)
114:   1487.92   0.054231  274.06  0.011374  (-0.006887  0.005744 -0.106270)
115:   1495.31   0.038393  194.02  0.008013  ( 0.006627 -0.003365  0.089204)
116:   1498.02   0.027485  138.90  0.005725  (-0.040817  0.007744 -0.063241)
117:   1500.87   0.007027   35.51  0.001461  (-0.035757 -0.005983  0.012112)
118:   1571.83   0.024513  123.88  0.004867  (-0.044149  0.019293  0.050452)
119:   1575.58   0.019782   99.97  0.003918  (-0.047934 -0.018904 -0.035540)
120:   1650.53   0.007757   39.20  0.001467  (-0.014042 -0.035228 -0.005321)
121:   1651.77   0.002648   13.38  0.000500  (-0.022311  0.001423  0.000649)
122:   1696.88   0.094988  480.03  0.017469  (-0.071303  0.063354  0.091493)
123:   1720.80   0.088458  447.03  0.016042  ( 0.108710  0.040840  0.050556)
124:   3005.58   0.011867   59.97  0.001232  ( 0.033749  0.008969 -0.003564)
125:   3023.03   0.001241    6.27  0.000128  (-0.009723  0.005772 -0.000507)
126:   3026.12   0.008854   44.74  0.000913  ( 0.011378 -0.020636  0.018915)
127:   3031.25   0.016846   85.13  0.001734  ( 0.028263  0.026856 -0.014636)
128:   3038.87   0.008358   42.24  0.000858  ( 0.022678  0.006627  0.017324)
129:   3059.34   0.007840   39.62  0.000800  (-0.011091  0.011628 -0.023270)
130:   3064.33   0.006335   32.02  0.000645  ( 0.003178  0.013418 -0.021331)
131:   3072.31   0.004120   20.82  0.000418  (-0.007525 -0.007762  0.017365)
132:   3089.26   0.003927   19.84  0.000397  (-0.017801  0.008264 -0.003392)
133:   3106.39   0.000442    2.23  0.000044  ( 0.004618 -0.004804 -0.000024)
134:   3108.57   0.001446    7.31  0.000145  ( 0.000426  0.009884  0.006879)
135:   3116.23   0.001594    8.06  0.000160  (-0.007624  0.007580  0.006636)
136:   3202.86   0.000326    1.65  0.000032  (-0.001032 -0.000120  0.005537)
137:   3203.25   0.000360    1.82  0.000035  (-0.002338  0.000756 -0.005390)
138:   3224.05   0.000101    0.51  0.000010  ( 0.002652 -0.001438 -0.000848)
139:   3225.42   0.000098    0.50  0.000009  ( 0.002509  0.001753  0.000352)
140:   3494.43   0.001608    8.12  0.000144  (-0.000028  0.008517  0.008428)

* The epsilon (eps) is given for a Dirac delta lineshape.
** The dipole moment derivative (T) already includes vibrational overlap.

The first frequency considered to be a vibration is 6
The total number of vibrations considered is 135


--------------------------
THERMOCHEMISTRY AT 298.15K
--------------------------

Temperature         ...   298.15 K
Pressure            ...     1.00 atm
Total Mass          ...   552.48 AMU
Quasi RRHO          ...     True
Cut-Off Frequency   ...     1.00 cm^-1

Throughout the following assumptions are being made:
  (1) The electronic state is orbitally nondegenerate
      but the spin degeneracy is treated
  (2) There are no thermally accessible electronically excited states
  (3) Hindered rotations indicated by low frequency modes are not
      treated as such but are treated as vibrations and this may
      cause some error
  (4) All equations used are the standard statistical mechanics
      equations for an ideal gas
  (5) All vibrations are strictly harmonic

freq.      14.03  E(vib)   ...       0.57 
freq.      22.79  E(vib)   ...       0.56 
freq.      29.74  E(vib)   ...       0.55 
freq.      47.04  E(vib)   ...       0.53 
freq.      61.21  E(vib)   ...       0.51 
freq.      73.28  E(vib)   ...       0.49 
freq.      95.54  E(vib)   ...       0.47 
freq.     103.89  E(vib)   ...       0.46 
freq.     108.76  E(vib)   ...       0.45 
freq.     120.72  E(vib)   ...       0.44 
freq.     126.71  E(vib)   ...       0.43 
freq.     140.15  E(vib)   ...       0.41 
freq.     159.98  E(vib)   ...       0.39 
freq.     170.15  E(vib)   ...       0.38 
freq.     177.02  E(vib)   ...       0.38 
freq.     183.44  E(vib)   ...       0.37 
freq.     185.89  E(vib)   ...       0.37 
freq.     202.90  E(vib)   ...       0.35 
freq.     211.19  E(vib)   ...       0.34 
freq.     216.54  E(vib)   ...       0.34 
freq.     240.21  E(vib)   ...       0.31 
freq.     249.47  E(vib)   ...       0.31 
freq.     258.44  E(vib)   ...       0.30 
freq.     269.93  E(vib)   ...       0.29 
freq.     298.52  E(vib)   ...       0.26 
freq.     316.18  E(vib)   ...       0.25 
freq.     328.46  E(vib)   ...       0.24 
freq.     331.25  E(vib)   ...       0.24 
freq.     345.28  E(vib)   ...       0.23 
freq.     350.17  E(vib)   ...       0.23 
freq.     364.13  E(vib)   ...       0.22 
freq.     364.81  E(vib)   ...       0.22 
freq.     371.69  E(vib)   ...       0.21 
freq.     376.23  E(vib)   ...       0.21 
freq.     380.28  E(vib)   ...       0.21 
freq.     390.05  E(vib)   ...       0.20 
freq.     402.72  E(vib)   ...       0.19 
freq.     413.62  E(vib)   ...       0.19 
freq.     419.85  E(vib)   ...       0.18 
freq.     440.71  E(vib)   ...       0.17 
freq.     443.16  E(vib)   ...       0.17 
freq.     472.47  E(vib)   ...       0.15 
freq.     483.22  E(vib)   ...       0.15 
freq.     524.62  E(vib)   ...       0.13 
freq.     531.03  E(vib)   ...       0.13 
freq.     544.79  E(vib)   ...       0.12 
freq.     575.22  E(vib)   ...       0.11 
freq.     582.33  E(vib)   ...       0.11 
freq.     584.76  E(vib)   ...       0.11 
freq.     598.35  E(vib)   ...       0.10 
freq.     609.25  E(vib)   ...       0.10 
freq.     701.86  E(vib)   ...       0.07 
freq.     703.75  E(vib)   ...       0.07 
freq.     779.01  E(vib)   ...       0.05 
freq.     790.94  E(vib)   ...       0.05 
freq.     794.24  E(vib)   ...       0.05 
freq.     794.91  E(vib)   ...       0.05 
freq.     829.85  E(vib)   ...       0.04 
freq.     878.88  E(vib)   ...       0.04 
freq.     886.49  E(vib)   ...       0.04 
freq.     891.67  E(vib)   ...       0.03 
freq.     892.10  E(vib)   ...       0.03 
freq.     892.50  E(vib)   ...       0.03 
freq.     898.30  E(vib)   ...       0.03 
freq.     913.68  E(vib)   ...       0.03 
freq.     922.12  E(vib)   ...       0.03 
freq.     923.42  E(vib)   ...       0.03 
freq.     951.02  E(vib)   ...       0.03 
freq.     959.58  E(vib)   ...       0.03 
freq.     988.85  E(vib)   ...       0.02 
freq.     990.44  E(vib)   ...       0.02 
freq.     999.22  E(vib)   ...       0.02 
freq.    1004.52  E(vib)   ...       0.02 
freq.    1018.43  E(vib)   ...       0.02 
freq.    1074.12  E(vib)   ...       0.02 
freq.    1101.86  E(vib)   ...       0.02 
freq.    1115.29  E(vib)   ...       0.01 
freq.    1130.78  E(vib)   ...       0.01 
freq.    1137.64  E(vib)   ...       0.01 
freq.    1141.61  E(vib)   ...       0.01 
freq.    1146.25  E(vib)   ...       0.01 
freq.    1161.25  E(vib)   ...       0.01 
freq.    1205.49  E(vib)   ...       0.01 
freq.    1211.36  E(vib)   ...       0.01 
freq.    1215.33  E(vib)   ...       0.01 
freq.    1240.73  E(vib)   ...       0.01 
freq.    1243.74  E(vib)   ...       0.01 
freq.    1266.93  E(vib)   ...       0.01 
freq.    1282.56  E(vib)   ...       0.01 
freq.    1289.10  E(vib)   ...       0.01 
freq.    1330.95  E(vib)   ...       0.01 
freq.    1359.07  E(vib)   ...       0.01 
freq.    1359.65  E(vib)   ...       0.01 
freq.    1362.40  E(vib)   ...       0.01 
freq.    1368.27  E(vib)   ...       0.01 
freq.    1371.86  E(vib)   ...       0.01 
freq.    1376.38  E(vib)   ...       0.01 
freq.    1376.71  E(vib)   ...       0.01 
freq.    1391.17  E(vib)   ...       0.00 
freq.    1408.81  E(vib)   ...       0.00 
freq.    1415.54  E(vib)   ...       0.00 
freq.    1430.99  E(vib)   ...       0.00 
freq.    1456.49  E(vib)   ...       0.00 
freq.    1457.50  E(vib)   ...       0.00 
freq.    1461.21  E(vib)   ...       0.00 
freq.    1471.81  E(vib)   ...       0.00 
freq.    1477.58  E(vib)   ...       0.00 
freq.    1483.63  E(vib)   ...       0.00 
freq.    1487.92  E(vib)   ...       0.00 
freq.    1495.31  E(vib)   ...       0.00 
freq.    1498.02  E(vib)   ...       0.00 
freq.    1500.87  E(vib)   ...       0.00 
freq.    1571.83  E(vib)   ...       0.00 
freq.    1575.58  E(vib)   ...       0.00 
freq.    1650.53  E(vib)   ...       0.00 
freq.    1651.77  E(vib)   ...       0.00 
freq.    1696.88  E(vib)   ...       0.00 
freq.    1720.80  E(vib)   ...       0.00 
freq.    3005.58  E(vib)   ...       0.00 
freq.    3023.03  E(vib)   ...       0.00 
freq.    3026.12  E(vib)   ...       0.00 
freq.    3031.25  E(vib)   ...       0.00 
freq.    3038.87  E(vib)   ...       0.00 
freq.    3059.34  E(vib)   ...       0.00 
freq.    3064.33  E(vib)   ...       0.00 
freq.    3072.31  E(vib)   ...       0.00 
freq.    3089.26  E(vib)   ...       0.00 
freq.    3106.39  E(vib)   ...       0.00 
freq.    3108.57  E(vib)   ...       0.00 
freq.    3116.23  E(vib)   ...       0.00 
freq.    3202.86  E(vib)   ...       0.00 
freq.    3203.25  E(vib)   ...       0.00 
freq.    3224.05  E(vib)   ...       0.00 
freq.    3225.42  E(vib)   ...       0.00 
freq.    3494.43  E(vib)   ...       0.00 

------------
INNER ENERGY
------------

The inner energy is: U= E(el) + E(ZPE) + E(vib) + E(rot) + E(trans)
    E(el)   - is the total energy from the electronic structure calculation
              = E(kin-el) + E(nuc-el) + E(el-el) + E(nuc-nuc)
    E(ZPE)  - the the zero temperature vibrational energy from the frequency calculation
    E(vib)  - the the finite temperature correction to E(ZPE) due to population
              of excited vibrational states
    E(rot)  - is the rotational thermal energy
    E(trans)- is the translational thermal energy

Summary of contributions to the inner energy U:
Electronic energy                ...  -4612.10376796 Eh
Zero point energy                ...      0.33940774 Eh     212.98 kcal/mol
Thermal vibrational correction   ...      0.02542914 Eh      15.96 kcal/mol
Thermal rotational correction    ...      0.00141627 Eh       0.89 kcal/mol
Thermal translational correction ...      0.00141627 Eh       0.89 kcal/mol
-----------------------------------------------------------------------
Total thermal energy                  -4611.73609854 Eh


Summary of corrections to the electronic energy:
(perhaps to be used in another calculation)
Total thermal correction                  0.02826168 Eh      17.73 kcal/mol
Non-thermal (ZPE) correction              0.33940774 Eh     212.98 kcal/mol
-----------------------------------------------------------------------
Total correction                          0.36766942 Eh     230.72 kcal/mol


--------
ENTHALPY
--------

The enthalpy is H = U + kB*T
                kB is Boltzmann's constant
Total thermal energy              ...  -4611.73609854 Eh 
Thermal Enthalpy correction       ...      0.00094421 Eh       0.59 kcal/mol
-----------------------------------------------------------------------
Total Enthalpy                    ...  -4611.73515433 Eh


Note: Only C1 symmetry has been detected, increase convergence thresholds 
      if your molecule has a higher symmetry. Symmetry factor of 1.0 is   
      used for the rotational entropy correction. 
 

Note: Rotational entropy computed according to Herzberg 
Infrared and Raman Spectra, Chapter V,1, Van Nostrand Reinhold, 1945 
Point Group:  C1, Symmetry Number:   1  
Rotational constants in cm-1:     0.004132     0.002993     0.002261 

Vibrational entropy computed according to the QRRHO of S. Grimme
Chem.Eur.J. 2012 18 9955 using a reference frequency of 100.0 cm-1


-------
ENTROPY
-------

The entropy contributions are T*S = T*(S(el)+S(vib)+S(rot)+S(trans))
     S(el)   - electronic entropy
     S(vib)  - vibrational entropy
     S(rot)  - rotational entropy
     S(trans)- translational entropy
The entropies will be listed as multiplied by the temperature to get
units of energy

Electronic entropy                ...      0.00169175 Eh      1.06 kcal/mol
Vibrational entropy               ...      0.04524294 Eh     28.39 kcal/mol
Rotational entropy                ...      0.01772168 Eh     11.12 kcal/mol
Translational entropy             ...      0.02129200 Eh     13.36 kcal/mol
-----------------------------------------------------------------------
Final entropy term                ...      0.08594837 Eh     53.93 kcal/mol

In case the symmetry of your molecule has not been determined correctly
or in case you have a reason to use a different symmetry number we print 
out the resulting rotational entropy values for sn=1,12:

 non-linear molecules -----------------------------------
|  sn= 1 | S(rot)=       0.01772168 Eh     11.12 kcal/mol|
|  sn= 2 | S(rot)=       0.01706723 Eh     10.71 kcal/mol|
|  sn= 3 | S(rot)=       0.01668439 Eh     10.47 kcal/mol|
|  sn= 4 | S(rot)=       0.01641277 Eh     10.30 kcal/mol|
|  sn= 5 | S(rot)=       0.01620208 Eh     10.17 kcal/mol|
|  sn= 6 | S(rot)=       0.01602994 Eh     10.06 kcal/mol|
|  sn= 7 | S(rot)=       0.01588439 Eh      9.97 kcal/mol|
|  sn= 8 | S(rot)=       0.01575831 Eh      9.89 kcal/mol|
|  sn= 9 | S(rot)=       0.01564710 Eh      9.82 kcal/mol|
|  sn=10 | S(rot)=       0.01554762 Eh      9.76 kcal/mol|
|  sn=11 | S(rot)=       0.01545763 Eh      9.70 kcal/mol|
|  sn=12 | S(rot)=       0.01537548 Eh      9.65 kcal/mol|
 linear molecules ---------------------------------------
|  Dinfh | S(rot)=       0.01107770 Eh      6.95 kcal/mol|
|  Cinfv | S(rot)=       0.01173216 Eh      7.36 kcal/mol|
 --------------------------------------------------------


-------------------
GIBBS FREE ENERGY
-------------------

The Gibbs free energy is G = H - T*S

Total enthalpy                    ...  -4611.73515433 Eh 
Total entropy correction          ...     -0.08594837 Eh    -53.93 kcal/mol
-----------------------------------------------------------------------
Final Gibbs free energy         ...  -4611.82110270 Eh

For completeness - the Gibbs free energy minus the electronic energy
G-E(el)                           ...      0.28266526 Eh    177.37 kcal/mol


Maximum memory used throughout the entire PROP-calculation: 1418.5 MB

--------------------------------
SUGGESTED CITATIONS FOR THIS RUN
--------------------------------

Below you find a list of papers that are relevant to this ORCA run
We neither can nor want to force you to cite these papers, but we appreciate if you do
You receive ORCA, which is the product of decades of hard work by many enthusiastic individuals, for free
The only thing we kindly ask in return is that you cite our papers,
We deeply appreciate it, if you show your appreciation for ORCA by not just citing the generic ORCA reference.

Please note that relegating all ORCA citations to the supporting information does *not* help us.
SI sections are not indexed - citations you put there will not count into any citation statistics
But we need these citations in order to attract the funding resources that allow us to do what we are doing

Therefore, if you are a happy ORCA user, please consider citing a few of the papers listed below in the main body of your paper

In addition to the list printed below, the program has created the file UJAZOX-S6.bibtex that contains the list in bibtex format
You can import this file easily into all common literature databanks and citation aid programs


List of essential papers. We consider these as the minimum necessary citations

  1. Neese,F.
     Software update: the ORCA program system, version 5.0
     WIRES Comput. Molec. Sci., 2022 12(1)e1606
     doi.org/10.1002/wcms.1606

List of papers to cite with high priority. The work reported in these papers was absolutely
necessary for this run to complete.
Our perspective: the developers of density functionals and basis sets usually get cited in chemistry papers
Good! But without the algorithms to do something with them, the functionals or basis sets would not do anything.
Hence, in our opinion, the algorithm design and method developments papers are equally worthy of getting cited

  1. Neese,F.
     An improvement of the resolution of the identity approximation for the formation of the Coulomb matrix
     J. Comp. Chem., 2003 24(14)1740-1747
     doi.org/10.1002/jcc.10318
  2. Neese,F.; Wennmohs,F.; Hansen,A.; Becker,U.
     Efficient, approximate and parallel Hartree-Fock and hybrid DFT calculations. A 'chain-of-spheres' algorithm for the Hartree-Fock exchange
     Chem. Phys., 2009 356(1-3)98-109
     doi.org/10.1016/j.chemphys.2008.10.036
  3. Bykov,D.; Petrenko,T.; Izsak,R.; Kossmann,S.; Becker,U.; Valeev,E.; Neese,F.
     Efficient implementation of the analytic second derivatives of Hartree-Fock and hybrid DFT energies: a detailed analysis of different approximations
     Molec. Phys., 2015 113 1961-1977
     doi.org/10.1080/00268976.2015.1025114
  4. Helmich-Paris,B.; de Souza,B.; Neese,F.; Izsák,R.
     An improved chain of spheres for exchange algorithm
     J. Chem. Phys., 2021 155 104109
     doi.org/doi: 10.1063/5.0058766.
  5. Neese,F.
     The SHARK Integral Generation and Digestion System
     J. Comp. Chem., 2022  1-16
     doi.org/10.1002/jcc.26942

List of suggested additional citations. These are papers that are important in the 'surrounding' of 
of this run, or papers that preceded the highly important papers. If you like your results we are grateful for a citation.

  1. Izsak,R.; Neese,F.
     An overlap fitted chain of spheres exchange method
     J. Chem. Phys., 2011 135 144105
     doi.org/10.1063/1.3646921
  2. Izsak,R.; Hansen,A.; Neese,F.
     The resolution of identity and chain of spheres approximations for the LPNO-CCSD singles Fock term
     Molec. Phys., 2012 110 2413-2417
     doi.org/10.1080/00268976.2012.687466
  3. Neese,F.
     The ORCA program system
     WIRES Comput. Molec. Sci., 2012 2(1)73-78
     doi.org/10.1002/wcms.81
  4. Izsak,R.; Neese,F.; Klopper,W.
     Robust fitting techniques in the chain of spheres approximation to the Fock exchange: The role of the complementary space
     J. Chem. Phys., 2013 139 
     doi.org/10.1063/1.4819264
  5. Neese,F.
     Software update: the ORCA program system, version 4.0
     WIRES Comput. Molec. Sci., 2018 8(1)1-6
     doi.org/10.1002/wcms.1327
  6. Neese,F.; Wennmohs,F.; Becker,U.; Riplinger,C.
     The ORCA quantum chemistry program package
     J. Chem. Phys., 2020 152 Art. No. L224108
     doi.org/10.1063/5.0004608

List of optional additional citations

  1. Neese,F.
     Approximate second-order SCF convergence for spin unrestricted wavefunctions
     Chem. Phys. Lett., 2000 325(1-3)93-98
     doi.org/10.1016/s0009-2614(00)00662-x

Timings for individual modules:

Sum of individual times          ...    16970.964 sec (= 282.849 min)
Startup calculation              ...      191.246 sec (=   3.187 min)   1.1 %
SCF iterations                   ...     3942.129 sec (=  65.702 min)  23.2 %
Property integrals               ...     3757.320 sec (=  62.622 min)  22.1 %
SCF Response                     ...     6898.183 sec (= 114.970 min)  40.6 %
Property calculations            ...     1206.778 sec (=  20.113 min)   7.1 %
SCF Gradient evaluation          ...      974.737 sec (=  16.246 min)   5.7 %
Geometry relaxation              ...        0.572 sec (=   0.010 min)   0.0 %
                             ****ORCA TERMINATED NORMALLY****
TOTAL RUN TIME: 0 days 4 hours 43 minutes 25 seconds 696 msec
