
                                 *****************
                                 * O   R   C   A *
                                 *****************

                                            #,                                       
                                            ###                                      
                                            ####                                     
                                            #####                                    
                                            ######                                   
                                           ########,                                 
                                     ,,################,,,,,                         
                               ,,#################################,,                 
                          ,,##########################################,,             
                       ,#########################################, ''#####,          
                    ,#############################################,,   '####,        
                  ,##################################################,,,,####,       
                ,###########''''           ''''###############################       
              ,#####''   ,,,,##########,,,,          '''####'''          '####       
            ,##' ,,,,###########################,,,                        '##       
           ' ,,###''''                  '''############,,,                           
         ,,##''                                '''############,,,,        ,,,,,,###''
      ,#''                                            '''#######################'''  
     '                                                          ''''####''''         
             ,#######,   #######,   ,#######,      ##                                
            ,#'     '#,  ##    ##  ,#'     '#,    #''#        ,####,   ,####,        
            ##       ##  ##   ,#'  ##            #'  '#       #'       #'  '#        
            ##       ##  #######   ##           ,######,      #####,   #    #        
            '#,     ,#'  ##    ##  '#,     ,#' ,#      #,     #,   #   #,  ,#        
             '#######'   ##     ##  '#######'  #'      '#     '####' # '####'        



                #########################################################
                #                        -***-                          #
                #          Department of theory and spectroscopy        #
                #                                                       #
                #                      Frank Neese                      #
                #                                                       #
                #     Directorship, Architecture, Infrastructure        #
                #                    SHARK, DRIVERS                     #
                #        Core code/Algorithms in most modules           #
                #                                                       #
                #        Max Planck Institute fuer Kohlenforschung      #
                #                Kaiser Wilhelm Platz 1                 #
                #                 D-45470 Muelheim/Ruhr                 #
                #                      Germany                          #
                #                                                       #
                #                  All rights reserved                  #
                #                        -***-                          #
                #########################################################


                         Program Version 6.0.1  -  RELEASE   -


 With contributions from (in alphabetic order):
[Max-Planck-Institut fuer Kohlenforschung]                               
  Daniel Aravena         : Magnetic Suceptibility                        
  Michael Atanasov       : Ab Initio Ligand Field Theory (pilot matlab implementation)
  Alexander A. Auer      : GIAO ZORA, VPT2 properties, NMR spectrum      
  Ute Becker             : All parallelization in ORCA, NUMFREQ, NUMCALC 
  Giovanni Bistoni       : ED, misc. LED, open-shell LED, HFLD           
  Martin Brehm           : Molecular dynamics                            
  Dmytro Bykov           : pre 5.0 version of the SCF Hessian            
  Marcos Casanova-Páez   : Triplet and SCS-CIS(D). UHF-(DLPNO)-IP/EA/STEOM-CCSD. UHF-CVS-IP/STEOM-CCSD   
  Vijay G. Chilkuri      : MRCI spin determinant printing, contributions to CSF-ICE 
  Pauline Colinet        : FMM embedding                                 
  Dipayan Datta          : RHF DLPNO-CCSD density                        
  Achintya Kumar Dutta   : EOM-CC, STEOM-CC                              
  Nicolas Foglia         : Exact transition moments, OPA infrastructure, MCD improvements    
  Dmitry Ganyushin       : Spin-Orbit,Spin-Spin,Magnetic field MRCI      
  Miquel Garcia-Rates    : C-PCM and meta-GGA Hessian, CCSD/C-PCM, Gaussian charge scheme 
  Tiago L. C. Gouveia    : GS-ROHF, GS-ROCIS                             
  Yang Guo               : DLPNO-NEVPT2, F12-NEVPT2, CIM, IAO-localization        
  Andreas Hansen         : Spin unrestricted coupled pair/coupled cluster methods 
  Ingolf Harden          : AUTO-CI MPn and infrastructure                
  Benjamin Helmich-Paris : MC-RPA, TRAH-(SCF,CASSCF), AVAS, COSX integrals, SCF dyn. polar. 
  Lee Huntington         : MR-EOM, pCC                                   
  Robert Izsak           : Overlap fitted RIJCOSX, COSX-SCS-MP3, EOM     
  Riya Kayal             : Wick's Theorem for AUTO-CI, AUTO-CI UHF-CCSDT 
  Emily Kempfer          : AUTO-CI, RHF CISDT and CCSDT                  
  Christian Kollmar      : KDIIS, OOCD, Brueckner-CCSD(T), CCSD density, CASPT2, CASPT2-K, improved NEVPT2 
  Axel Koslowski         : Symmetry handling                             
  Simone Kossmann        : meta-GGA functionals, TD-DFT gradient, OOMP2, (MP2 Hessian; deprecated post 5.0) 
  Lucas Lang             : DCDCAS                                        
  Marvin Lechner         : AUTO-CI (C++ implementation), FIC-MRCC        
  Spencer Leger          : CASSCF response                               
  Dagmar Lenk            : GEPOL surface, SMD, ORCA-2-JSON               
  Dimitrios Liakos       : Extrapolation schemes; Compound Job, initial MDCI parallelization 
  Dimitrios Manganas     : Further ROCIS development; embedding schemes. LFT, Crystal Embedding 
  Dimitrios Pantazis     : SARC Basis sets                               
  Anastasios Papadopoulos: AUTO-CI, single reference methods and gradients 
  Taras Petrenko         : pre 6.0 DFT Hessian and TD-DFT gradient, (ASA, deprecated), ECA, 1-Electron XAS/XES, NRVS 
  Peter Pinski           : DLPNO-MP2, DLPNO-MP2 Gradient                 
  Christoph Reimann      : Effective Core Potentials                     
  Marius Retegan         : Local ZFS, SOC                                
  Christoph Riplinger    : Optimizer, TS searches, QM/MM, DLPNO-CCSD(T), (RO)-DLPNO pert. Triples 
  Michael Roemelt        : Original ROCIS implementation                 
  Masaaki Saitow         : Open-shell DLPNO-CCSD energy and density      
  Barbara Sandhoefer     : DKH picture change effects                    
  Kantharuban Sivalingam : CASSCF convergence/infrastructure, NEVPT2 and variants, FIC-MRCI 
  Bernardo de Souza      : ESD, SOC TD-DFT                               
  Georgi L. Stoychev     : AutoAux, RI-MP2 NMR, DLPNO-MP2 response, X2C  
  Van Anh Tran           : RI-MP2 g-tensors                              
  Willem Van den Heuvel  : Paramagnetic NMR                              
  Zikuan Wang            : NOTCH, Electric field optimization            
  Frank Wennmohs         : Technical directorship and infrastructure     
  Hang Xu                : AUTO-CI-Response properties                   
                                                                         
[FACCTs GmbH]                                                            
  Markus Bursch, Miquel Garcia-Rates, Christoph Riplinger, Bernardo de Souza, Georgi L. Stoychev 
                                                                 
  APM, Basis sets (HGBS, AHGBS, def-TZVP (Ac-Lr), def2-XVPD (La-Lu)), CI-OPT, improved COSX, DLPNO-Multilevel,           
  DOCKER, DRACO, updates on ESD, GOAT, IRC, LR-CPCM, MBIS, meta-GGA TD-DFT gradient, ML-optimized integration grids, 
  MM, NACMEs, nearIR, NEB, NEB-TS, NL-DFT gradient (VV10), 2- and 3-layer-ONIOM, interface openCOSMO-RS, QMMM,   
  Crystal-QMMM, SF, symmetry and pop. for TD-DFT, r2SCAN hybrids, SOLVATOR                                   
                                                                         
[Other institutions]                                                     
  V. Asgeirsson          : NEB                                           
  Christoph Bannwarth    : sTDA-DFT, sTD-DFT, PBEh-3c, B97-3c, D3        
  Sebastian Ehlert       : rSCAN, r2SCAN, r2SCAN-3c, D4, dhf basis sets  
  Marvin Friede          : D4 for Fr, Ra, Ac-Lr                          
  Lars Goerigk           : TD-DFT with DH, B97 family of functionals     
  Stefan Grimme          : VdW corrections, initial TS optimization, DFT functionals, gCP, sTDA/sTD-DF 
  Waldemar Hujo          : DFT-NL                                        
  H. Jonsson             : NEB                                           
  Holger Kruse           : gCP                                           
  Marcel Mueller         : wB97X-3c, vDZP basis set                      
  Hagen Neugebauer       : wr2SCAN                                       
  Tobias Risthaus        : range-separated hybrid DFT                    
  Lukas Wittmann         : regularized MP2, r2SCAN double-hybrids, wr2SCAN        
                                                                         
We gratefully acknowledge several colleagues who have allowed us to      
interface, adapt or use parts of their codes:                            
  Ed Valeev, F. Pavosevic, A. Kumar             : LibInt (2-el integral package), F12 methods 
  Garnet Chan, S. Sharma, J. Yang, R. Olivares  : DMRG                   
  Ulf Ekstrom                                   : XCFun DFT Library      
  Mihaly Kallay                                 : mrcc  (arbitrary order and MRCC methods)
  Frank Weinhold                                : gennbo (NPA and NBO analysis)           
  Simon Mueller                                 : openCOSMO-RS                            
  Christopher J. Cramer and Donald G. Truhlar   : smd solvation model                     
  S Lehtola, MJT Oliveira, MAL Marques          : LibXC Library                           
  Liviu Ungur et al                             : ANISO software                          


 Your calculation uses the libint2 library for the computation of 2-el integrals
 For citations please refer to: http://libint.valeyev.net

 Your ORCA version has been built with support for libXC version: 6.2.2
 For citations please refer to: https://libxc.gitlab.io

 This ORCA versions uses:
   CBLAS   interface :  Fast vector & matrix operations
   LAPACKE interface :  Fast linear algebra routines
   SCALAPACK package :  Parallel linear algebra routines
   Shared memory     :  Shared parallel matrices
   BLAS/LAPACK       :  OpenBLAS 0.3.27  USE64BITINT DYNAMIC_ARCH NO_AFFINITY Cooperlake SINGLE_THREADED
        Core in use  :  Cooperlake
   Copyright (c) 2011-2014, The OpenBLAS Project


NOTE: MaxCore=3600 MB was set to SCF,MP2,MDCI,CIPSI,MRCI and CIS
      => If you want to overwrite this, your respective input block should be placed after the MaxCore statement
Warning: RI is on but no J-basis has been assigned. Assigning Def2/J (nothing to worry about!)
================================================================================

----- Orbital basis set information -----
Your calculation utilizes the basis: def2-TZVP
   F. Weigend and R. Ahlrichs, Phys. Chem. Chem. Phys. 7, 3297 (2005).

----- AuxJ basis set information -----
Your calculation utilizes the auxiliary basis: def2/J
   F. Weigend, Phys. Chem. Chem. Phys. 8, 1057 (2006).

================================================================================
                                        WARNINGS
                       Please study these warnings very carefully!
================================================================================


WARNING: your system is open-shell and RHF/RKS was chosen
  ===> : WILL SWITCH to UHF/UKS


WARNING: Geometry Optimization
  ===> : Switching off AutoStart
         For restart on a previous wavefunction, please use MOREAD

================================================================================
                                       INPUT FILE
================================================================================
NAME = VOFZEV-S6.inp
|  1> ! PBE0 def2-TZVP  Opt Freq DEFGRID3
|  2> 
|  3> %maxcore 3600
|  4> 
|  5> %pal
|  6>     nprocs 16
|  7> end
|  8> 
|  9> *xyz 1 6
| 10> Fe 0.0362 11.2929 10.0586
| 11> Cl 0.9929 13.3682 9.9829
| 12> Cl -0.337 10.5565 12.2002
| 13> P -2.831 10.2466 9.0921
| 14> P 2.0297 10.0988 7.8455
| 15> O -1.6612 11.1894 9.0207
| 16> O 1.171 9.9799 9.0737
| 17> C -4.0978 10.8267 10.2272
| 18> C -2.3453 8.6095 9.6402
| 19> C -3.5951 10.0652 7.4812
| 20> C 3.5253 11.0201 8.1839
| 21> C 1.1766 10.918 6.5039
| 22> C 2.4974 8.499 7.2531
| 23> H 0.8895 11.9213 6.8151
| 24> H 1.8356 10.9808 5.6392
| 25> H 0.2852 10.3507 6.2404
| 26> H 1.6038 7.9286 7.004
| 27> H 3.1179 8.6079 6.3648
| 28> H 3.0585 7.9755 8.0258
| 29> H 4.0974 10.5116 8.9585
| 30> H 4.1232 11.0877 7.2763
| 31> H 3.2656 12.0218 8.5231
| 32> H -1.902 8.6756 10.6326
| 33> H -3.2216 7.9639 9.6763
| 34> H -1.6174 8.1948 8.9444
| 35> H -2.8658 9.6694 6.776
| 36> H -4.4383 9.3799 7.5545
| 37> H -3.9456 11.0362 7.1343
| 38> H -4.4641 11.7976 9.8969
| 39> H -4.9218 10.115 10.2461
| 40> H -3.675 10.9191 11.2265
| 41> *
| 42> 
| 43>                          ****END OF INPUT****
================================================================================

                       *****************************
                       * Geometry Optimization Run *
                       *****************************

Geometry optimization settings:
Update method            Update   .... BFGS
Choice of coordinates    CoordSys .... (2022) Redundant Internals
Initial Hessian          InHess   .... Almloef's Model
Max. no of cycles        MaxIter  .... 93

Convergence Tolerances:
Energy Change            TolE     ....  5.0000e-06 Eh
Max. Gradient            TolMAXG  ....  3.0000e-04 Eh/bohr
RMS Gradient             TolRMSG  ....  1.0000e-04 Eh/bohr
Max. Displacement        TolMAXD  ....  4.0000e-03 bohr
RMS Displacement         TolRMSD  ....  2.0000e-03 bohr
Strict Convergence                .... False

------------------------------------------------------------------------------
                        ORCA OPTIMIZATION COORDINATE SETUP
------------------------------------------------------------------------------

The optimization will be done in redundant internal coordinates (2022)
Making redundant internal coordinates   ...  (2022 redundants) done
Evaluating the initial hessian          ...  (Almloef) done
Evaluating the coordinates              ...  done
Calculating the B-matrix                .... done
Calculating the G-matrix                .... done
Diagonalizing the G-matrix              .... done
Small eigenvalue found = 1.622e-02
Small eigenvalue found = 2.365e-02
Small eigenvalue found = 2.806e-02
The first mode is                       ....   92
The number of degrees of freedom        ....   87

    -----------------------------------------------------------------
                    Redundant Internal Coordinates


    -----------------------------------------------------------------
         Definition                    Initial Value    Approx d2E/dq
    -----------------------------------------------------------------
      1. B(Cl  1,Fe  0)                  2.2865         0.526772   
      2. B(Cl  2,Fe  0)                  2.2952         0.510089   
      3. B(P   3,Fe  0)                  3.2015         0.027365   
      4. B(P   4,Fe  0)                  3.2090         0.026622   
      5. B(O   5,P   3)                  1.5041         1.236759   
      6. B(O   5,Fe  0)                  1.9923         0.619622   
      7. B(O   6,Fe  0)                  1.9954         0.612441   
      8. B(O   6,P   4)                  1.5033         1.240426   
      9. B(C   7,P   3)                  1.7972         0.470598   
     10. B(C   8,P   3)                  1.7934         0.477063   
     11. B(C   9,P   3)                  1.7921         0.479346   
     12. B(C  10,P   4)                  1.7889         0.485097   
     13. B(C  11,P   4)                  1.7885         0.485780   
     14. B(C  12,P   4)                  1.7689         0.522043   
     15. B(H  13,C  11)                  1.0890         0.361449   
     16. B(H  14,C  11)                  1.0890         0.361419   
     17. B(H  15,C  11)                  1.0890         0.361465   
     18. B(H  16,C  12)                  1.0890         0.361421   
     19. B(H  17,C  12)                  1.0890         0.361404   
     20. B(H  18,C  12)                  1.0890         0.361407   
     21. B(H  19,C  10)                  1.0890         0.361453   
     22. B(H  20,C  10)                  1.0889         0.361504   
     23. B(H  21,C  10)                  1.0890         0.361436   
     24. B(H  22,C   8)                  1.0889         0.361535   
     25. B(H  23,C   8)                  1.0890         0.361375   
     26. B(H  24,C   8)                  1.0890         0.361406   
     27. B(H  25,C   9)                  1.0890         0.361473   
     28. B(H  26,C   9)                  1.0890         0.361380   
     29. B(H  27,C   9)                  1.0891         0.361358   
     30. B(H  28,C   7)                  1.0890         0.361426   
     31. B(H  29,C   7)                  1.0890         0.361469   
     32. B(H  30,C   7)                  1.0890         0.361439   
     33. A(Cl  1,Fe  0,O   6)          110.0560         0.546997   
     34. A(P   3,Fe  0,O   5)           20.4006         0.328609   
     35. A(Cl  2,Fe  0,P   3)           91.7884         0.329179   
     36. A(Cl  2,Fe  0,P   4)          128.6908         0.327687   
     37. A(Cl  2,Fe  0,O   5)          109.3232         0.544874   
     38. A(Cl  1,Fe  0,O   5)          112.7305         0.548207   
     39. A(Cl  2,Fe  0,O   6)          109.9925         0.543673   
     40. A(P   4,Fe  0,O   6)           20.1938         0.326493   
     41. A(Cl  1,Fe  0,P   3)          131.4041         0.330935   
     42. A(P   3,Fe  0,P   4)          103.0935         0.214455   
     43. A(P   3,Fe  0,O   6)           98.3525         0.327977   
     44. A(P   4,Fe  0,O   5)           98.6652         0.327121   
     45. A(O   5,Fe  0,O   6)          101.1401         0.542593   
     46. A(Cl  1,Fe  0,Cl  2)          112.9631         0.549299   
     47. A(Cl  1,Fe  0,P   4)           93.1517         0.329432   
     48. A(O   5,P   3,C   9)          110.6323         0.534008   
     49. A(Fe  0,P   3,C   9)          133.3363         0.302634   
     50. A(C   7,P   3,C   8)          107.0090         0.448641   
     51. A(Fe  0,P   3,O   5)           27.4974         0.351960   
     52. A(O   5,P   3,C   8)          112.0893         0.533527   
     53. A(Fe  0,P   3,C   8)           87.9096         0.302403   
     54. A(Fe  0,P   3,C   7)          109.5797         0.301745   
     55. A(O   5,P   3,C   7)          112.0781         0.532156   
     56. A(C   7,P   3,C   9)          107.4498         0.449030   
     57. A(C   8,P   3,C   9)          107.3243         0.450143   
     58. A(Fe  0,P   4,C  11)           92.8986         0.301949   
     59. A(Fe  0,P   4,C  10)          101.3774         0.301881   
     60. A(O   6,P   4,C  12)          110.6772         0.542989   
     61. A(Fe  0,P   4,O   6)           27.2708         0.350502   
     62. A(Fe  0,P   4,C  12)          137.0331         0.305448   
     63. A(C  10,P   4,C  11)          107.7457         0.452606   
     64. A(C  10,P   4,C  12)          107.9433         0.458580   
     65. A(C  11,P   4,C  12)          106.8071         0.458698   
     66. A(O   6,P   4,C  10)          111.3299         0.535509   
     67. A(O   6,P   4,C  11)          112.1240         0.535652   
     68. A(Fe  0,O   5,P   3)          132.1020         0.588113   
     69. A(Fe  0,O   6,P   4)          132.5354         0.587132   
     70. A(H  29,C   7,H  30)          109.4697         0.291183   
     71. A(H  28,C   7,H  30)          109.4674         0.291177   
     72. A(P   3,C   7,H  30)          109.4695         0.358235   
     73. A(H  28,C   7,H  29)          109.4766         0.291181   
     74. A(P   3,C   7,H  29)          109.4741         0.358240   
     75. A(P   3,C   7,H  28)          109.4699         0.358233   
     76. A(H  22,C   8,H  24)          109.4693         0.291187   
     77. A(H  22,C   8,H  23)          109.4723         0.291183   
     78. A(P   3,C   8,H  23)          109.4724         0.359057   
     79. A(P   3,C   8,H  22)          109.4732         0.359084   
     80. A(H  23,C   8,H  24)          109.4672         0.291167   
     81. A(P   3,C   8,H  24)          109.4729         0.359062   
     82. A(P   3,C   9,H  26)          109.4699         0.359350   
     83. A(P   3,C   9,H  25)          109.4719         0.359366   
     84. A(H  26,C   9,H  27)          109.4699         0.291161   
     85. A(H  25,C   9,H  27)          109.4710         0.291173   
     86. A(P   3,C   9,H  27)          109.4688         0.359346   
     87. A(H  25,C   9,H  26)          109.4758         0.291176   
     88. A(H  20,C  10,H  21)          109.4781         0.291187   
     89. A(H  19,C  10,H  21)          109.4660         0.291180   
     90. A(P   4,C  10,H  21)          109.4675         0.360090   
     91. A(H  19,C  10,H  20)          109.4746         0.291189   
     92. A(P   4,C  10,H  20)          109.4723         0.360102   
     93. A(P   4,C  10,H  19)          109.4688         0.360093   
     94. A(H  14,C  11,H  15)          109.4668         0.291180   
     95. A(H  13,C  11,H  15)          109.4693         0.291183   
     96. A(P   4,C  11,H  15)          109.4719         0.360181   
     97. A(H  13,C  11,H  14)          109.4704         0.291178   
     98. A(P   4,C  11,H  14)          109.4744         0.360174   
     99. A(P   4,C  11,H  13)          109.4745         0.360179   
    100. A(H  17,C  12,H  18)          109.4670         0.291170   
    101. A(H  16,C  12,H  18)          109.4692         0.291173   
    102. A(P   4,C  12,H  18)          109.4729         0.364626   
    103. A(H  16,C  12,H  17)          109.4715         0.291172   
    104. A(P   4,C  12,H  17)          109.4742         0.364626   
    105. A(P   4,C  12,H  16)          109.4725         0.364629   
    106. D(C   7,P   3,Fe  0,P   4)   -179.9454         0.001502   
    107. D(O   5,P   3,Fe  0,P   4)    -79.5344         0.001502   
    108. D(C   7,P   3,Fe  0,Cl  2)     49.5599         0.001502   
    109. D(O   5,P   3,Fe  0,Cl  2)    149.9708         0.001502   
    110. D(O   5,P   3,Fe  0,Cl  1)     26.7461         0.001502   
    111. D(C   7,P   3,Fe  0,O   5)   -100.4110         0.001502   
    112. D(O   5,P   3,Fe  0,O   6)    -99.5225         0.001502   
    113. D(C   7,P   3,Fe  0,O   6)    160.0665         0.001502   
    114. D(C   7,P   3,Fe  0,Cl  1)    -73.6649         0.001502   
    115. D(C  10,P   4,Fe  0,Cl  2)    -90.1014         0.001502   
    116. D(O   6,P   4,Fe  0,O   5)    -98.7323         0.001502   
    117. D(O   6,P   4,Fe  0,P   3)    -78.4441         0.001502   
    118. D(C  10,P   4,Fe  0,Cl  1)     32.9024         0.001502   
    119. D(O   6,P   4,Fe  0,Cl  2)     24.6956         0.001502   
    120. D(C  10,P   4,Fe  0,O   6)   -114.7970         0.001502   
    121. D(C  10,P   4,Fe  0,O   5)    146.4707         0.001502   
    122. D(C  10,P   4,Fe  0,P   3)    166.7588         0.001502   
    123. D(O   6,P   4,Fe  0,Cl  1)    147.6994         0.001502   
    124. D(Fe  0,O   5,P   3,C   9)   -149.8705         0.028654   
    125. D(Fe  0,O   5,P   3,C   8)    -30.1216         0.028654   
    126. D(P   3,O   5,Fe  0,O   6)     83.9871         0.003389   
    127. D(Fe  0,O   5,P   3,C   7)     90.2289         0.028654   
    128. D(P   3,O   5,Fe  0,Cl  2)    -32.0093         0.003389   
    129. D(P   3,O   5,Fe  0,P   4)    104.3367         0.003389   
    130. D(P   3,O   5,Fe  0,Cl  1)   -158.5320         0.003389   
    131. D(Fe  0,O   6,P   4,C  10)     72.8243         0.028831   
    132. D(P   4,O   6,Fe  0,O   5)     84.8043         0.003345   
    133. D(P   4,O   6,Fe  0,P   3)    105.3149         0.003345   
    134. D(P   4,O   6,Fe  0,Cl  2)   -159.6951         0.003345   
    135. D(Fe  0,O   6,P   4,C  11)    -47.9703         0.028831   
    136. D(P   4,O   6,Fe  0,Cl  1)    -34.6107         0.003345   
    137. D(Fe  0,O   6,P   4,C  12)   -167.1177         0.028831   
    138. D(H  29,C   7,P   3,O   5)   -179.9978         0.004996   
    139. D(H  28,C   7,P   3,C   9)    -61.7474         0.004996   
    140. D(H  28,C   7,P   3,C   8)   -176.7448         0.004996   
    141. D(H  28,C   7,P   3,O   5)     59.9945         0.004996   
    142. D(H  28,C   7,P   3,Fe  0)     89.3378         0.004996   
    143. D(H  29,C   7,P   3,C   8)    -56.7372         0.004996   
    144. D(H  29,C   7,P   3,Fe  0)   -150.6546         0.004996   
    145. D(H  23,C   8,P   3,C   7)     56.7522         0.005096   
    146. D(H  23,C   8,P   3,O   5)   -179.9941         0.005096   
    147. D(H  23,C   8,P   3,Fe  0)    166.5995         0.005096   
    148. D(H  22,C   8,P   3,C   9)   -178.3326         0.005096   
    149. D(H  22,C   8,P   3,C   7)    -63.2511         0.005096   
    150. D(H  22,C   8,P   3,O   5)     60.0026         0.005096   
    151. D(H  22,C   8,P   3,Fe  0)     46.5962         0.005096   
    152. D(H  26,C   9,P   3,C   7)    -57.3601         0.005132   
    153. D(H  26,C   9,P   3,O   5)    180.0000         0.005132   
    154. D(H  26,C   9,P   3,Fe  0)    161.4194         0.005132   
    155. D(H  25,C   9,P   3,C   8)    -62.5778         0.005132   
    156. D(H  25,C   9,P   3,C   7)   -177.3653         0.005132   
    157. D(H  25,C   9,P   3,O   5)     59.9948         0.005132   
    158. D(H  25,C   9,P   3,Fe  0)     41.4143         0.005132   
    159. D(H  20,C  10,P   4,C  11)    -56.6731         0.005223   
    160. D(H  20,C  10,P   4,O   6)    179.9964         0.005223   
    161. D(H  20,C  10,P   4,Fe  0)   -153.4818         0.005223   
    162. D(H  19,C  10,P   4,C  12)    -61.6682         0.005223   
    163. D(H  19,C  10,P   4,C  11)   -176.6764         0.005223   
    164. D(H  19,C  10,P   4,O   6)     59.9931         0.005223   
    165. D(H  19,C  10,P   4,Fe  0)     86.5149         0.005223   
    166. D(H  13,C  11,P   4,C  10)    -62.8499         0.005234   
    167. D(H  13,C  11,P   4,O   6)     59.9949         0.005234   
    168. D(H  13,C  11,P   4,Fe  0)     40.0703         0.005234   
    169. D(H  14,C  11,P   4,C  10)     57.1530         0.005234   
    170. D(H  14,C  11,P   4,O   6)    179.9979         0.005234   
    171. D(H  14,C  11,P   4,Fe  0)    160.0733         0.005234   
    172. D(H  13,C  11,P   4,C  12)   -178.6075         0.005234   
    173. D(H  17,C  12,P   4,C  10)    -57.9272         0.005836   
    174. D(H  17,C  12,P   4,O   6)   -179.9917         0.005836   
    175. D(H  17,C  12,P   4,Fe  0)    171.3883         0.005836   
    176. D(H  16,C  12,P   4,C  11)    -62.3049         0.005836   
    177. D(H  16,C  12,P   4,C  10)   -177.9302         0.005836   
    178. D(H  16,C  12,P   4,O   6)     60.0053         0.005836   
    179. D(H  16,C  12,P   4,Fe  0)     51.3854         0.005836   
    -----------------------------------------------------------------

Number of atoms                         .... 31
Number of degrees of freedom            .... 179


         *************************************************************
         *                GEOMETRY OPTIMIZATION CYCLE   1            *
         *************************************************************
---------------------------------
CARTESIAN COORDINATES (ANGSTROEM)
---------------------------------
  Fe     0.036200   11.292900   10.058600
  Cl     0.992900   13.368200    9.982900
  Cl    -0.337000   10.556500   12.200200
  P     -2.831000   10.246600    9.092100
  P      2.029700   10.098800    7.845500
  O     -1.661200   11.189400    9.020700
  O      1.171000    9.979900    9.073700
  C     -4.097800   10.826700   10.227200
  C     -2.345300    8.609500    9.640200
  C     -3.595100   10.065200    7.481200
  C      3.525300   11.020100    8.183900
  C      1.176600   10.918000    6.503900
  C      2.497400    8.499000    7.253100
  H      0.889500   11.921300    6.815100
  H      1.835600   10.980800    5.639200
  H      0.285200   10.350700    6.240400
  H      1.603800    7.928600    7.004000
  H      3.117900    8.607900    6.364800
  H      3.058500    7.975500    8.025800
  H      4.097400   10.511600    8.958500
  H      4.123200   11.087700    7.276300
  H      3.265600   12.021800    8.523100
  H     -1.902000    8.675600   10.632600
  H     -3.221600    7.963900    9.676300
  H     -1.617400    8.194800    8.944400
  H     -2.865800    9.669400    6.776000
  H     -4.438300    9.379900    7.554500
  H     -3.945600   11.036200    7.134300
  H     -4.464100   11.797600    9.896900
  H     -4.921800   10.115000   10.246100
  H     -3.675000   10.919100   11.226500

----------------------------
CARTESIAN COORDINATES (A.U.)
----------------------------
  NO LB      ZA    FRAG     MASS         X           Y           Z
   0 Fe   26.0000    0    55.850    0.068408   21.340488   19.007999
   1 Cl   17.0000    0    35.453    1.876309   25.262237   18.864947
   2 Cl   17.0000    0    35.453   -0.636838   19.948894   23.055037
   3 P    15.0000    0    30.974   -5.349815   19.363268   17.181579
   4 P    15.0000    0    30.974    3.835577   19.083966   14.825846
   5 O     8.0000    0    15.999   -3.139213   21.144902   17.046653
   6 O     8.0000    0    15.999    2.212869   18.859278   17.146808
   7 C     6.0000    0    12.011   -7.743720   20.459498   19.326607
   8 C     6.0000    0    12.011   -4.431975   16.269597   18.217338
   9 C     6.0000    0    12.011   -6.793754   19.020471   14.137419
  10 C     6.0000    0    12.011    6.661852   20.824971   15.465330
  11 C     6.0000    0    12.011    2.223452   20.632030   12.290590
  12 C     6.0000    0    12.011    4.719402   16.060782   13.706373
  13 H     1.0000    0     1.008    1.680911   22.527992   12.878673
  14 H     1.0000    0     1.008    3.468781   20.750705   10.656544
  15 H     1.0000    0     1.008    0.538950   19.559988   11.792647
  16 H     1.0000    0     1.008    3.030743   14.982883   13.235642
  17 H     1.0000    0     1.008    5.891977   16.266574   12.027729
  18 H     1.0000    0     1.008    5.779727   15.071511   15.166564
  19 H     1.0000    0     1.008    7.742964   19.864045   16.929112
  20 H     1.0000    0     1.008    7.791719   20.952716   13.750214
  21 H     1.0000    0     1.008    6.171090   22.717910   16.106325
  22 H     1.0000    0     1.008   -3.594259   16.394508   20.092702
  23 H     1.0000    0     1.008   -6.087942   15.049590   18.285557
  24 H     1.0000    0     1.008   -3.056443   15.485928   16.902466
  25 H     1.0000    0     1.008   -5.415577   18.272518   12.804784
  26 H     1.0000    0     1.008   -8.387172   17.725442   14.275936
  27 H     1.0000    0     1.008   -7.456103   20.855396   13.481873
  28 H     1.0000    0     1.008   -8.435926   22.294233   18.702431
  29 H     1.0000    0     1.008   -9.300854   19.114580   19.362323
  30 H     1.0000    0     1.008   -6.944744   20.634109   21.215010

--------------------------------
INTERNAL COORDINATES (ANGSTROEM)
--------------------------------
 Fe     0   0   0     0.000000000000     0.00000000     0.00000000
 Cl     1   0   0     2.286454781971     0.00000000     0.00000000
 Cl     1   2   0     2.295215406013   112.96312005     0.00000000
 P      1   2   3     3.201515544238   131.40406987   114.75865435
 P      1   2   3     3.209007427539    93.15171572   225.30951546
 O      4   1   2     1.504128265807    27.49736430    26.74608619
 O      5   1   2     1.503322367292    27.27081633   147.69938841
 C      4   1   2     1.797150594691   109.57970718   286.33513215
 C      4   1   2     1.793436508494    87.90956382   179.01574603
 C      4   1   2     1.792136596356   133.33626186    66.97649929
 C      5   1   2     1.788890049724   101.37736812    32.90235282
 C      5   1   2     1.788507425201    92.89863686   284.14937984
 C      5   1   2     1.768909576547   137.03306258   165.51997916
 H     12   5   1     1.088982433283   109.47448841    40.07030983
 H     12   5   1     1.089004559219   109.47444900   160.07328551
 H     12   5   1     1.088969926123   109.47192313   280.07022310
 H     13   5   1     1.089003181814   109.47248215    51.38537017
 H     13   5   1     1.089016230366   109.47421144   171.38833737
 H     13   5   1     1.089013659235   109.47286298   291.38603847
 H     11   5   1     1.088979256001   109.46877589    86.51489879
 H     11   5   1     1.088940737598   109.47232906   206.51816097
 H     11   5   1     1.088992020173   109.46753464   326.52505832
 H      9   4   1     1.088917747123   109.47323274    46.59620955
 H      9   4   1     1.089038227061   109.47243272   166.59952053
 H      9   4   1     1.089014297427   109.47285173   286.59628895
 H     10   4   1     1.088964264795   109.47191919    41.41425761
 H     10   4   1     1.089034076602   109.46990130   161.41944964
 H     10   4   1     1.089050439603   109.46882757   281.41559445
 H      8   4   1     1.088999811754   109.46994276    89.33776466
 H      8   4   1     1.088967446713   109.47411649   209.34540144
 H      8   4   1     1.088989481125   109.46948997   329.34424112

---------------------------
INTERNAL COORDINATES (A.U.)
---------------------------
 Fe     0   0   0     0.000000000000     0.00000000     0.00000000
 Cl     1   0   0     4.320773355521     0.00000000     0.00000000
 Cl     1   2   0     4.337328535722   112.96312005     0.00000000
 P      1   2   3     6.049987592102   131.40406987   114.75865435
 P      1   2   3     6.064145199768    93.15171572   225.30951546
 O      4   1   2     2.842390492665    27.49736430    26.74608619
 O      5   1   2     2.840867565180    27.27081633   147.69938841
 C      4   1   2     3.396122445381   109.57970718   286.33513215
 C      4   1   2     3.389103839630    87.90956382   179.01574603
 C      4   1   2     3.386647361691   133.33626186    66.97649929
 C      5   1   2     3.380512277674   101.37736812    32.90235282
 C      5   1   2     3.379789222115    92.89863686   284.14937984
 C      5   1   2     3.342754655345   137.03306258   165.51997916
 H     12   5   1     2.057878563557   109.47448841    40.07030983
 H     12   5   1     2.057920375516   109.47444900   160.07328551
 H     12   5   1     2.057854928449   109.47192313   280.07022310
 H     13   5   1     2.057917772596   109.47248215    51.38537017
 H     13   5   1     2.057942430787   109.47421144   171.38833737
 H     13   5   1     2.057937572053   109.47286298   291.38603847
 H     11   5   1     2.057872559363   109.46877589    86.51489879
 H     11   5   1     2.057799770130   109.47232906   206.51816097
 H     11   5   1     2.057896680152   109.46753464   326.52505832
 H      9   4   1     2.057756324429   109.47323274    46.59620955
 H      9   4   1     2.057983998516   109.47243272   166.59952053
 H      9   4   1     2.057938778061   109.47285173   286.59628895
 H     10   4   1     2.057844230089   109.47191919    41.41425761
 H     10   4   1     2.057976155285   109.46990130   161.41944964
 H     10   4   1     2.058007076877   109.46882757   281.41559445
 H      8   4   1     2.057911404107   109.46994276    89.33776466
 H      8   4   1     2.057850243043   109.47411649   209.34540144
 H      8   4   1     2.057891882046   109.46948997   329.34424112

---------------------
BASIS SET INFORMATION
---------------------
There are 6 groups of distinct atoms

 Group   1 Type Fe  : 17s11p7d1f contracted to 6s4p4d1f pattern {842111/6311/4111/1}
 Group   2 Type Cl  : 14s9p3d1f contracted to 5s5p2d1f pattern {73211/51111/21/1}
 Group   3 Type P   : 14s9p3d1f contracted to 5s5p2d1f pattern {73211/51111/21/1}
 Group   4 Type O   : 11s6p2d1f contracted to 5s3p2d1f pattern {62111/411/11/1}
 Group   5 Type C   : 11s6p2d1f contracted to 5s3p2d1f pattern {62111/411/11/1}
 Group   6 Type H   : 5s1p contracted to 3s1p pattern {311/1}

Atom   0Fe   basis set group =>   1
Atom   1Cl   basis set group =>   2
Atom   2Cl   basis set group =>   2
Atom   3P    basis set group =>   3
Atom   4P    basis set group =>   3
Atom   5O    basis set group =>   4
Atom   6O    basis set group =>   4
Atom   7C    basis set group =>   5
Atom   8C    basis set group =>   5
Atom   9C    basis set group =>   5
Atom  10C    basis set group =>   5
Atom  11C    basis set group =>   5
Atom  12C    basis set group =>   5
Atom  13H    basis set group =>   6
Atom  14H    basis set group =>   6
Atom  15H    basis set group =>   6
Atom  16H    basis set group =>   6
Atom  17H    basis set group =>   6
Atom  18H    basis set group =>   6
Atom  19H    basis set group =>   6
Atom  20H    basis set group =>   6
Atom  21H    basis set group =>   6
Atom  22H    basis set group =>   6
Atom  23H    basis set group =>   6
Atom  24H    basis set group =>   6
Atom  25H    basis set group =>   6
Atom  26H    basis set group =>   6
Atom  27H    basis set group =>   6
Atom  28H    basis set group =>   6
Atom  29H    basis set group =>   6
Atom  30H    basis set group =>   6
---------------------------------
AUXILIARY/J BASIS SET INFORMATION
---------------------------------
There are 6 groups of distinct atoms

 Group   1 Type Fe  : 19s5p5d3f3g contracted to 8s5p5d2f3g pattern {121111111/11111/11111/21/111}
 Group   2 Type Cl  : 14s5p5d2f1g contracted to 8s4p3d1f1g pattern {71111111/2111/311/2/1}
 Group   3 Type P   : 14s5p5d2f1g contracted to 8s4p3d1f1g pattern {71111111/2111/311/2/1}
 Group   4 Type O   : 12s5p4d2f1g contracted to 6s4p3d1f1g pattern {711111/2111/211/2/1}
 Group   5 Type C   : 12s5p4d2f1g contracted to 6s4p3d1f1g pattern {711111/2111/211/2/1}
 Group   6 Type H   : 5s2p1d contracted to 3s1p1d pattern {311/2/1}

Atom   0Fe   basis set group =>   1
Atom   1Cl   basis set group =>   2
Atom   2Cl   basis set group =>   2
Atom   3P    basis set group =>   3
Atom   4P    basis set group =>   3
Atom   5O    basis set group =>   4
Atom   6O    basis set group =>   4
Atom   7C    basis set group =>   5
Atom   8C    basis set group =>   5
Atom   9C    basis set group =>   5
Atom  10C    basis set group =>   5
Atom  11C    basis set group =>   5
Atom  12C    basis set group =>   5
Atom  13H    basis set group =>   6
Atom  14H    basis set group =>   6
Atom  15H    basis set group =>   6
Atom  16H    basis set group =>   6
Atom  17H    basis set group =>   6
Atom  18H    basis set group =>   6
Atom  19H    basis set group =>   6
Atom  20H    basis set group =>   6
Atom  21H    basis set group =>   6
Atom  22H    basis set group =>   6
Atom  23H    basis set group =>   6
Atom  24H    basis set group =>   6
Atom  25H    basis set group =>   6
Atom  26H    basis set group =>   6
Atom  27H    basis set group =>   6
Atom  28H    basis set group =>   6
Atom  29H    basis set group =>   6
Atom  30H    basis set group =>   6


           ************************************************************
           *        Program running with 16 parallel MPI-processes    *
           *              working on a common directory               *
           ************************************************************
------------------------------------------------------------------------------
                             ORCA STARTUP CALCULATIONS
                           -- RI-GTO INTEGRALS CHOSEN --
------------------------------------------------------------------------------
------------------------------------------------------------------------------
                   ___                                                        
                  /   \      - P O W E R E D   B Y -                         
                 /     \                                                     
                 |  |  |   _    _      __       _____    __    __             
                 |  |  |  | |  | |    /  \     |  _  \  |  |  /  |          
                  \  \/   | |  | |   /    \    | | | |  |  | /  /          
                 / \  \   | |__| |  /  /\  \   | |_| |  |  |/  /          
                |  |  |   |  __  | /  /__\  \  |    /   |      \           
                |  |  |   | |  | | |   __   |  |    \   |  |\   \          
                \     /   | |  | | |  |  |  |  | |\  \  |  | \   \       
                 \___/    |_|  |_| |__|  |__|  |_| \__\ |__|  \__/        
                                                                              
                      - O R C A' S   B I G   F R I E N D -                    
                                      &                                       
                       - I N T E G R A L  F E E D E R -                       
                                                                              
 v1 FN, 2020, v2 2021, v3 2022-2024                                           
------------------------------------------------------------------------------


----------------------
SHARK INTEGRAL PACKAGE
----------------------

Number of atoms                             ...     31
Number of basis functions                   ...    549
Number of shells                            ...    227
Maximum angular momentum                    ...      3
Integral batch strategy                     ... SHARK/LIBINT Hybrid
RI-J (if used) integral strategy            ... SPLIT-RIJ (Revised 2003 algorithm where possible)
Printlevel                                  ...      1
Contraction scheme used                     ... SEGMENTED contraction
Prescreening option                         ... SCHWARTZ
   Thresh                                   ... 2.500e-11
   Tcut                                     ... 2.500e-12
   Tpresel                                  ... 2.500e-12 
Coulomb Range Separation                    ... NOT USED
Exchange Range Separation                   ... NOT USED
Multipole approximations                    ... NOT USED
Finite Nucleus Model                        ... NOT USED
CABS basis                                  ... NOT available
Auxiliary Coulomb fitting basis             ... AVAILABLE
   # of basis functions in Aux-J            ...    883
   # of shells in Aux-J                     ...    301
   Maximum angular momentum in Aux-J        ...      4
Auxiliary J/K fitting basis                 ... NOT available
Auxiliary Correlation fitting basis         ... NOT available
Auxiliary 'external' fitting basis          ... NOT available

Checking pre-screening integrals            ... done (  0.0 sec) Dimension = 227
Check shell pair data                       ... done (  0.0 sec)
Shell pair information
Shell pair cut-off parameter TPreSel        ...   2.5e-12
Total number of shell pairs                 ...     25878
Shell pairs after pre-screening             ...     19002
Total number of primitive shell pairs       ...     85511
Primitive shell pairs kept                  ...     41099
          la=0 lb=0:   5235 shell pairs
          la=1 lb=0:   5783 shell pairs
          la=1 lb=1:   1620 shell pairs
          la=2 lb=0:   2536 shell pairs
          la=2 lb=1:   1421 shell pairs
          la=2 lb=2:    342 shell pairs
          la=3 lb=0:   1087 shell pairs
          la=3 lb=1:    615 shell pairs
          la=3 lb=2:    297 shell pairs
          la=3 lb=3:     66 shell pairs

Calculating one electron integrals          ... done (  0.0 sec)
done (  0.1 sec)
Calculating Nuclear repulsion               ... done (  0.0 sec) ENN=   1828.196816960205 Eh

Diagonalization of the overlap matrix:
Smallest eigenvalue                        ... 5.081e-04
Time for diagonalization                   ...    0.053 sec
Threshold for overlap eigenvalues          ... 1.000e-07
Number of eigenvalues below threshold      ... 0
Time for construction of square roots      ...    0.040 sec
Total time needed                          ...    0.113 sec

-------------------
DFT GRID GENERATION
-------------------

General Integration Accuracy     IntAcc      ... 4.959
Radial Grid Type                 RadialGrid  ... OptM3 with GC (2021)
Angular Grid (max. ang.)         AngularGrid ... 6 (Lebedev-590)
Angular grid pruning method      GridPruning ... 4 (adaptive)
Weight generation scheme         WeightScheme... mBecke (2022)
Basis function cutoff            BFCut       ... 1.0000e-11
Integration weight cutoff        WCut        ... 1.0000e-14
Partially contracted basis set               ... off
Rotationally invariant grid construction     ... off
Angular grids for H and He will be reduced by one unit
Core-polarized basis detected: some atoms will have their core
                               angular grid increased.

Total number of grid points                  ...   360728
Total number of batches                      ...     5651
Average number of points per batch           ...       63
Average number of grid points per atom       ...    11636

--------------------
COSX GRID GENERATION
--------------------

GRIDX 1
-------
General Integration Accuracy     IntAcc      ... 4.020
Radial Grid Type                 RadialGrid  ... OptM3 with GC (2021)
Angular Grid (max. ang.)         AngularGrid ... 2 (Lebedev-110)
Angular grid pruning method      GridPruning ... 4 (adaptive)
Weight generation scheme         WeightScheme... mBecke (2022)
Basis function cutoff            BFCut       ... 1.0000e-11
Integration weight cutoff        WCut        ... 1.0000e-14
Partially contracted basis set               ... on
Rotationally invariant grid construction     ... off
Angular grids for H and He will be reduced by one unit
Core-polarized basis detected: some atoms will have their core
                               angular grid increased.

Total number of grid points                  ...    41124
Total number of batches                      ...      337
Average number of points per batch           ...      122
Average number of grid points per atom       ...     1327
UseSFitting                                  ... on

GRIDX 2
-------
General Integration Accuracy     IntAcc      ... 4.338
Radial Grid Type                 RadialGrid  ... OptM3 with GC (2021)
Angular Grid (max. ang.)         AngularGrid ... 3 (Lebedev-194)
Angular grid pruning method      GridPruning ... 4 (adaptive)
Weight generation scheme         WeightScheme... mBecke (2022)
Basis function cutoff            BFCut       ... 1.0000e-11
Integration weight cutoff        WCut        ... 1.0000e-14
Partially contracted basis set               ... on
Rotationally invariant grid construction     ... off
Angular grids for H and He will be reduced by one unit
Core-polarized basis detected: some atoms will have their core
                               angular grid increased.

Total number of grid points                  ...    84959
Total number of batches                      ...      677
Average number of points per batch           ...      125
Average number of grid points per atom       ...     2741
UseSFitting                                  ... on

GRIDX 3
-------
General Integration Accuracy     IntAcc      ... 4.871
Radial Grid Type                 RadialGrid  ... OptM3 with GC (2021)
Angular Grid (max. ang.)         AngularGrid ... 4 (Lebedev-302)
Angular grid pruning method      GridPruning ... 4 (adaptive)
Weight generation scheme         WeightScheme... mBecke (2022)
Basis function cutoff            BFCut       ... 1.0000e-11
Integration weight cutoff        WCut        ... 1.0000e-14
Partially contracted basis set               ... on
Rotationally invariant grid construction     ... off
Angular grids for H and He will be reduced by one unit
Core-polarized basis detected: some atoms will have their core
                               angular grid increased.

Total number of grid points                  ...   163713
Total number of batches                      ...     1296
Average number of points per batch           ...      126
Average number of grid points per atom       ...     5281
UseSFitting                                  ... on
Initializing property integral containers    ... done (  0.0 sec)

SHARK setup successfully completed in   6.3 seconds

Maximum memory used throughout the entire STARTUP-calculation: 101.0 MB


           ************************************************************
           *        Program running with 16 parallel MPI-processes    *
           *              working on a common directory               *
           ************************************************************
-------------------------------------------------------------------------------
                                 ORCA GUESS
                   Start orbitals & Density for SCF / CASSCF
-------------------------------------------------------------------------------

------------
SCF SETTINGS
------------
Hamiltonian:
 Density Functional     Method          .... DFT(GTOs)
 Exchange Functional    Exchange        .... PBE
   PBE kappa parameter   XKappa         ....  0.804000
   PBE mue parameter    XMuePBE         ....  0.219520
 Correlation Functional Correlation     .... PBE
   PBE beta parameter  CBetaPBE         ....  0.066725
 LDA part of GGA corr.  LDAOpt          .... PW91-LDA
 Gradients option       PostSCFGGA      .... off
 Hybrid DFT is turned on
   Fraction HF Exchange ScalHFX         ....  0.250000
   Scaling of DF-GGA-X  ScalDFX         ....  0.750000
   Scaling of DF-GGA-C  ScalDFC         ....  1.000000
   Scaling of DF-LDA-C  ScalLDAC        ....  1.000000
   Perturbative correction              ....  0.000000
   NL short-range parameter             ....  6.900000
 RI-approximation to the Coulomb term is turned on
   Number of AuxJ basis functions       .... 883
   RIJ-COSX (HFX calculated with COS-X)).... on


General Settings:
 Integral files         IntName         .... VOFZEV-S6
 Hartree-Fock type      HFTyp           .... UHF
 Total Charge           Charge          ....    1
 Multiplicity           Mult            ....    6
 Number of Electrons    NEL             ....  159
 Basis Dimension        Dim             ....  549
 Nuclear Repulsion      ENuc            ....   1828.1968169602 Eh

Convergence Acceleration:
 AO-DIIS                CNVDIIS         .... on
   Start iteration      DIISMaxIt       ....    12
   Startup error        DIISStart       ....  0.200000
   # of expansion vecs  DIISMaxEq       ....     5
   Bias factor          DIISBfac        ....   1.050
   Max. coefficient     DIISMaxC        ....  10.000
 MO-DIIS                CNVKDIIS        .... off
 Trust-Rad. Augm. Hess. CNVTRAH         .... auto
   Auto Start mean grad. ratio tolernc. ....  1.125000
   Auto Start start iteration           ....    50
   Auto Start num. interpolation iter.  ....    10
   Max. Number of Micro iterations      ....    24
   Max. Number of Macro iterations      .... Maxiter - #DIIS iter
   Number of Davidson start vectors     ....     2
   Converg. threshold    (grad. norm)   ....   1.000e-05
   Grad. Scal. Fac. for Micro threshold ....   0.100
   Minimum threshold for Micro iter.    ....   1.000e-02
   NR start threshold (gradient norm)   ....   1.000e-04
   Initial trust radius                 ....   0.400
   Minimum AH scaling param. (alpha)    ....   1.000
   Maximum AH scaling param. (alpha)    .... 1000.000
   Quad. conv. algorithm                .... NR
   White noise on init. David. guess    .... on
   Maximum white noise                  ....   0.010
   Pseudo random numbers                .... off
   Inactive MOs                         .... canonical
   Orbital update algorithm             .... Taylor
   Preconditioner                       .... Diag
   Full preconditioner red. dimension   ....   250
 SOSCF                  CNVSOSCF        .... on
   Start iteration      SOSCFMaxIt      ....   150
   Startup grad/error   SOSCFStart      ....  0.003300
   Hessian update       SOSCFHessUp     .... L-BFGS
 Level Shifting         CNVShift        .... on
   Level shift para.    LevelShift      ....    0.2500
   Turn off err/grad.   ShiftErr        ....    0.0010
 Zerner damping         CNVZerner       .... off
 Static damping         CNVDamp         .... on
   Fraction old density DampFac         ....    0.7000
   Max. Damping (<1)    DampMax         ....    0.9800
   Min. Damping (>=0)   DampMin         ....    0.0000
   Turn off err/grad.   DampErr         ....    0.1000

SCF Procedure:
 Maximum # iterations   MaxIter         ....   125
 SCF integral mode      SCFMode         .... Direct
   Integral package                     .... SHARK and LIBINT hybrid scheme
 Reset frequency        DirectResetFreq ....    20
 Integral Threshold     Thresh          ....  2.500e-11 Eh
 Primitive CutOff       TCut            ....  2.500e-12 Eh

Convergence Tolerance:
 Convergence Check Mode ConvCheckMode   .... Total+1el-Energy
 Convergence forced     ConvForced      .... 0
 Energy Change          TolE            ....  1.000e-08 Eh
 1-El. energy change                    ....  1.000e-05 Eh
 Orbital Gradient       TolG            ....  1.000e-05
 Orbital Rotation angle TolX            ....  1.000e-05
 DIIS Error             TolErr          ....  5.000e-07

------------------------------
INITIAL GUESS: MODEL POTENTIAL
------------------------------
Loading Hartree-Fock densities                     ... done
Calculating cut-offs                               ... done
Initializing the effective Hamiltonian             ... done
Setting up the integral package (SHARK)            ... done
done (   0.2 sec)
Making the grid                                    ... done (   0.2 sec)
Mapping shells                                     ... done
Starting the XC term evaluation                    ... done (   0.1 sec)
  promolecular density results
     # of electrons  =    159.992621259
     EX              =   -206.428115696
     EC              =     -5.947900011
     EX+EC           =   -212.376015707
Transforming the Hamiltonian                       ... done (   0.1 sec)
done (   0.1 sec)
Back transforming the eigenvectors                 ... done (   0.0 sec)
done
                      ------------------
                      INITIAL GUESS DONE (   0.7 sec)
                      ------------------
             **** ENERGY FILE WAS UPDATED (VOFZEV-S6.en.tmp) ****
Finished Guess after   1.1 sec
Maximum memory used throughout the entire GUESS-calculation: 40.0 MB


           ************************************************************
           *        Program running with 16 parallel MPI-processes    *
           *              working on a common directory               *
           ************************************************************

-------------------------------------------------------------------------------------------
                                      ORCA LEAN-SCF
                              memory conserving SCF solver
-------------------------------------------------------------------------------------------

----------------------------------------D-I-I-S--------------------------------------------
Iteration    Energy (Eh)           Delta-E    RMSDP     MaxDP     DIISErr   Damp  Time(sec)
-------------------------------------------------------------------------------------------
               ***  Starting incremental Fock matrix formation  ***
    1    -3255.1057847909178236     0.00e+00  7.32e-04  7.94e-02  2.16e-01  0.700   8.3
Warning: op=1 Small HOMO/LUMO gap (   0.037) - skipping pre-diagonalization
         Will do a full diagonalization
    2    -3255.3521205490242210    -2.46e-01  3.67e-04  2.20e-02  6.59e-02  0.700   5.7
                               ***Turning on AO-DIIS***
    3    -3255.5014851312698738    -1.49e-01  1.61e-04  1.35e-02  3.43e-02  0.700   4.8
    4    -3255.5832450664402131    -8.18e-02  3.57e-04  2.82e-02  5.47e-02  0.000   4.9
    5    -3255.7702902553655804    -1.87e-01  1.40e-04  2.23e-02  5.93e-02  0.000   4.8
    6    -3255.7867275640292064    -1.64e-02  1.16e-04  1.96e-02  2.39e-02  0.000   4.4
    7    -3255.7895162908480415    -2.79e-03  3.02e-05  2.59e-03  8.57e-03  0.000   4.3
                              *** Initializing SOSCF ***
---------------------------------------S-O-S-C-F--------------------------------------
Iteration    Energy (Eh)           Delta-E    RMSDP     MaxDP     MaxGrad    Time(sec)
--------------------------------------------------------------------------------------
    8    -3255.7899495255687725    -4.33e-04  1.21e-05  2.38e-03  1.02e-03     4.5
               *** Restarting incremental Fock matrix formation ***
    9    -3255.7899770562034973    -2.75e-05  9.63e-06  6.99e-04  7.21e-04     8.0
   10    -3255.7899934584711445    -1.64e-05  1.60e-05  1.30e-03  7.77e-04     5.4
   11    -3255.7899830537799062     1.04e-05  7.67e-06  7.77e-04  1.56e-03     5.3
   12    -3255.7899990256391902    -1.60e-05  7.06e-06  7.24e-04  2.96e-04     5.1
   13    -3255.7899990411269755    -1.55e-08  3.69e-06  2.08e-04  1.87e-04     5.2
   14    -3255.7900018967311553    -2.86e-06  2.01e-06  1.73e-04  5.56e-05     4.7
   15    -3255.7900019197513757    -2.30e-08  1.11e-06  1.03e-04  5.65e-05     4.3
   16    -3255.7900021198847753    -2.00e-07  1.40e-07  1.22e-05  7.44e-06     4.1
   17    -3255.7900020994138686     2.05e-08  9.15e-08  6.59e-06  3.47e-06     3.2
   18    -3255.7900020544193467     4.50e-08  6.54e-08  4.06e-06  1.47e-06     3.0
                  *** Gradient check signals convergence ***

               *****************************************************
               *                     SUCCESS                       *
               *           SCF CONVERGED AFTER  18 CYCLES          *
               *****************************************************

 done (   10.115 sec)
Old exchange energy                            :    -52.190105866 Eh
New exchange energy                            :    -52.190104480 Eh
Exchange energy change after final integration :      0.000001386 Eh
Total energy after final integration           :  -3255.790000668 Eh
             **** ENERGY FILE WAS UPDATED (VOFZEV-S6.en.tmp) ****

----------------
TOTAL SCF ENERGY
----------------

Total Energy       :      -3255.79000066833851 Eh          -88594.54998 eV

Components:
Nuclear Repulsion  :       1828.19681696020484 Eh           49747.76452 eV
Electronic Energy  :      -5083.98681901462442 Eh         -138342.31453 eV
One Electron Energy:      -8111.73150368696861 Eh         -220731.43598 eV
Two Electron Energy:       3027.74468467234419 Eh           82389.12145 eV

Virial components:
Potential Energy   :      -6505.70603716524965 Eh         -177029.26126 eV
Kinetic Energy     :       3249.91603649691115 Eh           88434.71129 eV
Virial Ratio       :          2.00180742028577

DFT components:
N(Alpha)           :       82.000015687616 electrons
N(Beta)            :       77.000015834372 electrons
N(Total)           :      159.000031521988 electrons
E(X)               :     -155.935833395700 Eh       
E(C)               :       -5.903038727205 Eh       
E(XC)              :     -161.838872122905 Eh       

---------------
SCF CONVERGENCE
---------------

  Last Energy change         ...   -4.4995e-08  Tolerance :   1.0000e-08
  Last MAX-Density change    ...    4.0628e-06  Tolerance :   1.0000e-07
  Last RMS-Density change    ...    6.5434e-08  Tolerance :   5.0000e-09
  Last DIIS Error            ...    1.0211e-03  Tolerance :   5.0000e-07
  Last Orbital Gradient      ...    1.4700e-06  Tolerance :   1.0000e-05
  Last Orbital Rotation      ...    1.0804e-05  Tolerance :   1.0000e-05


----------------------
UHF SPIN CONTAMINATION
----------------------

Warning: in a DFT calculation there is little theoretical justification to 
         calculate <S**2> as in Hartree-Fock theory. We will do it anyways
         but you should keep in mind that the values have only limited relevance

Expectation value of <S**2>     :     8.761364
Ideal value S*(S+1) for S=2.5   :     8.750000
Deviation                       :     0.011364

----------------
ORBITAL ENERGIES
----------------
                 SPIN UP ORBITALS
  NO   OCC          E(Eh)            E(eV) 
   0   1.0000    -256.649006     -6983.7745 
   1   1.0000    -101.794674     -2769.9739 
   2   1.0000    -101.793362     -2769.9382 
   3   1.0000     -77.427945     -2106.9215 
   4   1.0000     -77.425775     -2106.8624 
   5   1.0000     -30.470088      -829.1333 
   6   1.0000     -26.290135      -715.3910 
   7   1.0000     -26.287618      -715.3224 
   8   1.0000     -26.285827      -715.2737 
   9   1.0000     -19.358097      -526.7606 
  10   1.0000     -19.356792      -526.7251 
  11   1.0000     -10.370760      -282.2027 
  12   1.0000     -10.370247      -282.1888 
  13   1.0000     -10.368553      -282.1427 
  14   1.0000     -10.366392      -282.0839 
  15   1.0000     -10.362927      -281.9896 
  16   1.0000     -10.360830      -281.9325 
  17   1.0000      -9.619454      -261.7587 
  18   1.0000      -9.618156      -261.7233 
  19   1.0000      -7.350908      -200.0284 
  20   1.0000      -7.349698      -199.9954 
  21   1.0000      -7.347746      -199.9423 
  22   1.0000      -7.347599      -199.9383 
  23   1.0000      -7.346446      -199.9069 
  24   1.0000      -7.346219      -199.9008 
  25   1.0000      -6.817024      -185.5006 
  26   1.0000      -6.815508      -185.4594 
  27   1.0000      -4.953383      -134.7884 
  28   1.0000      -4.952288      -134.7586 
  29   1.0000      -4.952100      -134.7535 
  30   1.0000      -4.951842      -134.7465 
  31   1.0000      -4.950783      -134.7176 
  32   1.0000      -4.950504      -134.7101 
  33   1.0000      -3.892315      -105.9153 
  34   1.0000      -2.657987       -72.3275 
  35   1.0000      -2.652261       -72.1717 
  36   1.0000      -2.648062       -72.0574 
  37   1.0000      -1.197505       -32.5858 
  38   1.0000      -1.194915       -32.5153 
  39   1.0000      -0.950383       -25.8612 
  40   1.0000      -0.946938       -25.7675 
  41   1.0000      -0.925656       -25.1884 
  42   1.0000      -0.921344       -25.0711 
  43   1.0000      -0.880071       -23.9480 
  44   1.0000      -0.877645       -23.8819 
  45   1.0000      -0.874114       -23.7859 
  46   1.0000      -0.872805       -23.7502 
  47   1.0000      -0.728933       -19.8353 
  48   1.0000      -0.726999       -19.7826 
  49   1.0000      -0.663679       -18.0596 
  50   1.0000      -0.658502       -17.9187 
  51   1.0000      -0.652188       -17.7469 
  52   1.0000      -0.651192       -17.7198 
  53   1.0000      -0.648698       -17.6520 
  54   1.0000      -0.621405       -16.9093 
  55   1.0000      -0.614798       -16.7295 
  56   1.0000      -0.613745       -16.7008 
  57   1.0000      -0.612307       -16.6617 
  58   1.0000      -0.609370       -16.5818 
  59   1.0000      -0.605138       -16.4666 
  60   1.0000      -0.584601       -15.9078 
  61   1.0000      -0.580216       -15.7885 
  62   1.0000      -0.577013       -15.7013 
  63   1.0000      -0.575939       -15.6721 
  64   1.0000      -0.570312       -15.5190 
  65   1.0000      -0.555624       -15.1193 
  66   1.0000      -0.554459       -15.0876 
  67   1.0000      -0.553776       -15.0690 
  68   1.0000      -0.539255       -14.6739 
  69   1.0000      -0.538013       -14.6401 
  70   1.0000      -0.536709       -14.6046 
  71   1.0000      -0.533859       -14.5270 
  72   1.0000      -0.493745       -13.4355 
  73   1.0000      -0.484128       -13.1738 
  74   1.0000      -0.480757       -13.0821 
  75   1.0000      -0.468418       -12.7463 
  76   1.0000      -0.464524       -12.6403 
  77   1.0000      -0.449020       -12.2184 
  78   1.0000      -0.435168       -11.8415 
  79   1.0000      -0.432421       -11.7668 
  80   1.0000      -0.431284       -11.7358 
  81   1.0000      -0.425771       -11.5858 
  82   0.0000      -0.124328        -3.3831 
  83   0.0000      -0.097686        -2.6582 
  84   0.0000      -0.091766        -2.4971 
  85   0.0000      -0.076234        -2.0744 
  86   0.0000      -0.066992        -1.8229 
  87   0.0000      -0.064895        -1.7659 
  88   0.0000      -0.054994        -1.4965 
  89   0.0000      -0.053547        -1.4571 
  90   0.0000      -0.052972        -1.4414 
  91   0.0000      -0.051599        -1.4041 
  92   0.0000      -0.037367        -1.0168 

                 SPIN DOWN ORBITALS
  NO   OCC          E(Eh)            E(eV) 
   0   1.0000    -256.647352     -6983.7295 
   1   1.0000    -101.792202     -2769.9066 
   2   1.0000    -101.790884     -2769.8708 
   3   1.0000     -77.427906     -2106.9204 
   4   1.0000     -77.425735     -2106.8614 
   5   1.0000     -30.374444      -826.5306 
   6   1.0000     -26.208017      -713.1564 
   7   1.0000     -26.207110      -713.1317 
   8   1.0000     -26.206880      -713.1255 
   9   1.0000     -19.354517      -526.6632 
  10   1.0000     -19.353188      -526.6270 
  11   1.0000     -10.370635      -282.1993 
  12   1.0000     -10.370209      -282.1877 
  13   1.0000     -10.368421      -282.1391 
  14   1.0000     -10.366357      -282.0829 
  15   1.0000     -10.362869      -281.9880 
  16   1.0000     -10.360783      -281.9312 
  17   1.0000      -9.617255      -261.6988 
  18   1.0000      -9.615951      -261.6633 
  19   1.0000      -7.347072      -199.9240 
  20   1.0000      -7.345738      -199.8877 
  21   1.0000      -7.344388      -199.8509 
  22   1.0000      -7.344287      -199.8482 
  23   1.0000      -7.343116      -199.8163 
  24   1.0000      -7.342978      -199.8126 
  25   1.0000      -6.816953      -185.4987 
  26   1.0000      -6.815436      -185.4574 
  27   1.0000      -4.953187      -134.7831 
  28   1.0000      -4.952260      -134.7578 
  29   1.0000      -4.952077      -134.7529 
  30   1.0000      -4.951643      -134.7411 
  31   1.0000      -4.950756      -134.7169 
  32   1.0000      -4.950478      -134.7094 
  33   1.0000      -3.663845       -99.6983 
  34   1.0000      -2.407840       -65.5206 
  35   1.0000      -2.406897       -65.4950 
  36   1.0000      -2.406546       -65.4855 
  37   1.0000      -1.189639       -32.3717 
  38   1.0000      -1.186896       -32.2971 
  39   1.0000      -0.949215       -25.8295 
  40   1.0000      -0.945788       -25.7362 
  41   1.0000      -0.909897       -24.7596 
  42   1.0000      -0.905034       -24.6272 
  43   1.0000      -0.879783       -23.9401 
  44   1.0000      -0.877313       -23.8729 
  45   1.0000      -0.873900       -23.7800 
  46   1.0000      -0.872608       -23.7449 
  47   1.0000      -0.717962       -19.5367 
  48   1.0000      -0.713821       -19.4241 
  49   1.0000      -0.632275       -17.2051 
  50   1.0000      -0.629096       -17.1186 
  51   1.0000      -0.616728       -16.7820 
  52   1.0000      -0.614964       -16.7340 
  53   1.0000      -0.613057       -16.6821 
  54   1.0000      -0.611983       -16.6529 
  55   1.0000      -0.583889       -15.8884 
  56   1.0000      -0.581625       -15.8268 
  57   1.0000      -0.577952       -15.7269 
  58   1.0000      -0.575549       -15.6615 
  59   1.0000      -0.571374       -15.5479 
  60   1.0000      -0.569782       -15.5046 
  61   1.0000      -0.554580       -15.0909 
  62   1.0000      -0.553800       -15.0697 
  63   1.0000      -0.539504       -14.6806 
  64   1.0000      -0.538215       -14.6456 
  65   1.0000      -0.537646       -14.6301 
  66   1.0000      -0.534610       -14.5475 
  67   1.0000      -0.491591       -13.3769 
  68   1.0000      -0.484585       -13.1862 
  69   1.0000      -0.481546       -13.1035 
  70   1.0000      -0.480748       -13.0818 
  71   1.0000      -0.475064       -12.9272 
  72   1.0000      -0.467491       -12.7211 
  73   1.0000      -0.442852       -12.0506 
  74   1.0000      -0.430991       -11.7279 
  75   1.0000      -0.428762       -11.6672 
  76   1.0000      -0.418687       -11.3931 
  77   0.0000      -0.269108        -7.3228 
  78   0.0000      -0.265059        -7.2126 
  79   0.0000      -0.261209        -7.1079 
  80   0.0000      -0.257283        -7.0010 
  81   0.0000      -0.250285        -6.8106 
  82   0.0000      -0.119107        -3.2411 
  83   0.0000      -0.093235        -2.5370 
  84   0.0000      -0.089966        -2.4481 
  85   0.0000      -0.075047        -2.0421 
  86   0.0000      -0.064178        -1.7464 
  87   0.0000      -0.062136        -1.6908 
*Only the first 10 virtual orbitals were printed.

                    ********************************
                    * MULLIKEN POPULATION ANALYSIS *
                    ********************************

--------------------------------------------
MULLIKEN ATOMIC CHARGES AND SPIN POPULATIONS
--------------------------------------------
   0 Fe:    0.856794    4.213648
   1 Cl:   -0.297547    0.289557
   2 Cl:   -0.297527    0.290620
   3 P :    0.553044    0.009230
   4 P :    0.556239    0.008003
   5 O :   -0.557482    0.082926
   6 O :   -0.557700    0.083437
   7 C :   -0.391901    0.003241
   8 C :   -0.401361    0.000688
   9 C :   -0.382171    0.005591
  10 C :   -0.395574    0.002552
  11 C :   -0.406140    0.002191
  12 C :   -0.373998    0.005733
  13 H :    0.181887   -0.000541
  14 H :    0.176157   -0.000200
  15 H :    0.150021    0.000107
  16 H :    0.161255   -0.000221
  17 H :    0.169428    0.001468
  18 H :    0.182958   -0.000161
  19 H :    0.177860   -0.000026
  20 H :    0.165488    0.000384
  21 H :    0.184430    0.000423
  22 H :    0.183496    0.000207
  23 H :    0.173548   -0.000523
  24 H :    0.152715    0.000342
  25 H :    0.154818   -0.000245
  26 H :    0.170679    0.001282
  27 H :    0.182026   -0.000136
  28 H :    0.177663   -0.000063
  29 H :    0.166307    0.000486
  30 H :    0.184589    0.000001
Sum of atomic charges         :    1.0000000
Sum of atomic spin populations:    5.0000000

-----------------------------------------------------
MULLIKEN REDUCED ORBITAL CHARGES AND SPIN POPULATIONS
-----------------------------------------------------
CHARGE
  0 Fes       :     6.476899  s :     6.476899
      pz      :     4.224251  p :    12.649629
      px      :     4.208723
      py      :     4.216655
      dz2     :     1.219156  d :     6.015744
      dxz     :     1.193195
      dyz     :     1.225834
      dx2y2   :     1.189036
      dxy     :     1.188523
      f0      :     0.000137  f :     0.000934
      f+1     :     0.000114
      f-1     :     0.000111
      f+2     :     0.000153
      f-2     :     0.000160
      f+3     :     0.000152
      f-3     :     0.000105

  1 Cls       :     5.962533  s :     5.962533
      pz      :     3.859736  p :    11.312818
      px      :     3.810144
      py      :     3.642938
      dz2     :     0.002896  d :     0.020891
      dxz     :     0.000830
      dyz     :     0.004260
      dx2y2   :     0.006088
      dxy     :     0.006816
      f0      :     0.000112  f :     0.001305
      f+1     :     0.000065
      f-1     :     0.000231
      f+2     :     0.000085
      f-2     :     0.000109
      f+3     :     0.000424
      f-3     :     0.000279

  2 Cls       :     5.962616  s :     5.962616
      pz      :     3.630140  p :    11.313184
      px      :     3.847615
      py      :     3.835429
      dz2     :     0.008507  d :     0.020469
      dxz     :     0.004757
      dyz     :     0.006081
      dx2y2   :     0.000503
      dxy     :     0.000621
      f0      :     0.000421  f :     0.001258
      f+1     :     0.000245
      f-1     :     0.000397
      f+2     :     0.000085
      f-2     :     0.000095
      f+3     :     0.000008
      f-3     :     0.000007

  3 P s       :     5.342278  s :     5.342278
      pz      :     2.860617  p :     8.304132
      px      :     2.690392
      py      :     2.753124
      dz2     :     0.113313  d :     0.721460
      dxz     :     0.192034
      dyz     :     0.109184
      dx2y2   :     0.176144
      dxy     :     0.130785
      f0      :     0.012150  f :     0.079085
      f+1     :     0.007823
      f-1     :     0.008144
      f+2     :     0.006667
      f-2     :     0.015429
      f+3     :     0.018587
      f-3     :     0.010284

  4 P s       :     5.338777  s :     5.338777
      pz      :     2.659775  p :     8.290167
      px      :     2.775907
      py      :     2.854485
      dz2     :     0.158229  d :     0.734069
      dxz     :     0.140536
      dyz     :     0.167377
      dx2y2   :     0.117276
      dxy     :     0.150651
      f0      :     0.017606  f :     0.080747
      f+1     :     0.008852
      f-1     :     0.011758
      f+2     :     0.011889
      f-2     :     0.014424
      f+3     :     0.009479
      f-3     :     0.006738

  5 O s       :     3.837026  s :     3.837026
      pz      :     1.671629  p :     4.698559
      px      :     1.420995
      py      :     1.605936
      dz2     :     0.002389  d :     0.020581
      dxz     :     0.003996
      dyz     :     0.003237
      dx2y2   :     0.005827
      dxy     :     0.005131
      f0      :     0.000146  f :     0.001315
      f+1     :     0.000137
      f-1     :     0.000072
      f+2     :     0.000082
      f-2     :     0.000214
      f+3     :     0.000355
      f-3     :     0.000309

  6 O s       :     3.841166  s :     3.841166
      pz      :     1.480279  p :     4.694637
      px      :     1.571102
      py      :     1.643256
      dz2     :     0.005696  d :     0.020583
      dxz     :     0.004899
      dyz     :     0.004811
      dx2y2   :     0.002423
      dxy     :     0.002754
      f0      :     0.000259  f :     0.001313
      f+1     :     0.000363
      f-1     :     0.000114
      f+2     :     0.000224
      f-2     :     0.000262
      f+3     :     0.000042
      f-3     :     0.000049

  7 C s       :     3.211165  s :     3.211165
      pz      :     1.053554  p :     3.145572
      px      :     1.017295
      py      :     1.074722
      dz2     :     0.008419  d :     0.033222
      dxz     :     0.007567
      dyz     :     0.004166
      dx2y2   :     0.004236
      dxy     :     0.008834
      f0      :     0.000334  f :     0.001943
      f+1     :     0.000603
      f-1     :     0.000033
      f+2     :     0.000124
      f-2     :     0.000225
      f+3     :     0.000344
      f-3     :     0.000281

  8 C s       :     3.200124  s :     3.200124
      pz      :     1.096475  p :     3.166091
      px      :     1.080143
      py      :     0.989474
      dz2     :     0.007297  d :     0.033229
      dxz     :     0.006832
      dyz     :     0.005589
      dx2y2   :     0.004658
      dxy     :     0.008854
      f0      :     0.000209  f :     0.001916
      f+1     :     0.000610
      f-1     :     0.000135
      f+2     :     0.000044
      f-2     :     0.000251
      f+3     :     0.000245
      f-3     :     0.000422

  9 C s       :     3.208746  s :     3.208746
      pz      :     0.983864  p :     3.139064
      px      :     1.056347
      py      :     1.098852
      dz2     :     0.007479  d :     0.032455
      dxz     :     0.007538
      dyz     :     0.005384
      dx2y2   :     0.004234
      dxy     :     0.007820
      f0      :     0.000336  f :     0.001905
      f+1     :     0.000510
      f-1     :     0.000135
      f+2     :     0.000010
      f-2     :     0.000387
      f+3     :     0.000171
      f-3     :     0.000356

 10 C s       :     3.208770  s :     3.208770
      pz      :     1.078526  p :     3.151698
      px      :     0.995715
      py      :     1.077458
      dz2     :     0.005303  d :     0.033152
      dxz     :     0.008474
      dyz     :     0.004908
      dx2y2   :     0.007036
      dxy     :     0.007431
      f0      :     0.000157  f :     0.001954
      f+1     :     0.000543
      f-1     :     0.000039
      f+2     :     0.000266
      f-2     :     0.000389
      f+3     :     0.000260
      f-3     :     0.000300

 11 C s       :     3.204064  s :     3.204064
      pz      :     1.028610  p :     3.166468
      px      :     1.060762
      py      :     1.077096
      dz2     :     0.005586  d :     0.033655
      dxz     :     0.009427
      dyz     :     0.005799
      dx2y2   :     0.006151
      dxy     :     0.006693
      f0      :     0.000135  f :     0.001953
      f+1     :     0.000514
      f-1     :     0.000092
      f+2     :     0.000443
      f-2     :     0.000335
      f+3     :     0.000172
      f-3     :     0.000262

 12 C s       :     3.203590  s :     3.203590
      pz      :     1.076607  p :     3.136004
      px      :     1.076373
      py      :     0.983024
      dz2     :     0.005274  d :     0.032466
      dxz     :     0.007637
      dyz     :     0.006190
      dx2y2   :     0.005772
      dxy     :     0.007594
      f0      :     0.000034  f :     0.001938
      f+1     :     0.000561
      f-1     :     0.000109
      f+2     :     0.000225
      f-2     :     0.000503
      f+3     :     0.000210
      f-3     :     0.000296

 13 H s       :     0.795270  s :     0.795270
      pz      :     0.005357  p :     0.022844
      px      :     0.005287
      py      :     0.012199

 14 H s       :     0.801134  s :     0.801134
      pz      :     0.010748  p :     0.022710
      px      :     0.007246
      py      :     0.004716

 15 H s       :     0.827221  s :     0.827221
      pz      :     0.005566  p :     0.022758
      px      :     0.010585
      py      :     0.006607

 16 H s       :     0.815884  s :     0.815884
      pz      :     0.005078  p :     0.022861
      px      :     0.009860
      py      :     0.007923

 17 H s       :     0.807857  s :     0.807857
      pz      :     0.010387  p :     0.022715
      px      :     0.007439
      py      :     0.004889

 18 H s       :     0.794096  s :     0.794096
      pz      :     0.008647  p :     0.022945
      px      :     0.006880
      py      :     0.007419

 19 H s       :     0.799214  s :     0.799214
      pz      :     0.009066  p :     0.022926
      px      :     0.007658
      py      :     0.006202

 20 H s       :     0.811889  s :     0.811889
      pz      :     0.009893  p :     0.022623
      px      :     0.007959
      py      :     0.004771

 21 H s       :     0.792259  s :     0.792259
      pz      :     0.005568  p :     0.023312
      px      :     0.005226
      py      :     0.012518

 22 H s       :     0.793051  s :     0.793051
      pz      :     0.012275  p :     0.023453
      px      :     0.006246
      py      :     0.004932

 23 H s       :     0.803740  s :     0.803740
      pz      :     0.004662  p :     0.022712
      px      :     0.009508
      py      :     0.008543

 24 H s       :     0.824583  s :     0.824583
[...]
 29:    313.42   0.002007   10.14  0.001998  ( 0.008285  0.028433  0.033486)
 30:    334.71   0.001374    6.95  0.001281  ( 0.025512  0.015632 -0.019652)
 31:    347.00   0.000515    2.60  0.000463  (-0.004493 -0.013579 -0.016078)
 32:    348.22   0.005462   27.60  0.004895  ( 0.026232 -0.052430  0.038180)
 33:    380.28   0.002017   10.19  0.001655  (-0.007566 -0.025882 -0.030466)
 34:    420.40   0.018639   94.19  0.013836  (-0.006605  0.090523 -0.074818)
 35:    476.03   0.018050   91.22  0.011833  (-0.015580 -0.068936 -0.082690)
 36:    481.31   0.020825  105.24  0.013502  ( 0.113872  0.001080 -0.023106)
 37:    681.71   0.000693    3.50  0.000317  (-0.008954 -0.010816 -0.010950)
 38:    682.01   0.002685   13.57  0.001228  ( 0.033090 -0.000671 -0.011533)
 39:    763.35   0.000744    3.76  0.000304  ( 0.003108  0.011572  0.012667)
 40:    763.37   0.001015    5.13  0.000415  (-0.007213  0.015048 -0.011685)
 41:    766.53   0.000765    3.87  0.000311  ( 0.005688  0.000880  0.016682)
 42:    766.65   0.000734    3.71  0.000299  ( 0.001642 -0.017161 -0.001190)
 43:    779.37   0.000001    0.01  0.000000  (-0.000026  0.000433 -0.000480)
 44:    779.44   0.000001    0.00  0.000000  (-0.000056 -0.000495  0.000234)
 45:    868.36   0.000237    1.20  0.000085  ( 0.000319  0.008142  0.004347)
 46:    868.71   0.007133   36.05  0.002562  (-0.019496  0.037179 -0.028286)
 47:    871.84   0.001277    6.45  0.000457  (-0.016980  0.010725 -0.007326)
 48:    872.54   0.008595   43.43  0.003074  ( 0.009618  0.036008  0.041046)
 49:    955.82   0.000019    0.10  0.000006  ( 0.001844 -0.001052 -0.001353)
 50:    955.97   0.000835    4.22  0.000272  (-0.016193  0.000594  0.003140)
 51:    966.63   0.000712    3.60  0.000230  ( 0.003414  0.008857  0.011823)
 52:    967.16   0.009345   47.23  0.003015  (-0.014628  0.041989 -0.032222)
 53:    967.81   0.015253   77.08  0.004918  ( 0.035600 -0.049265  0.034983)
 54:    968.55   0.024262  122.61  0.007817  ( 0.015769  0.057246  0.065507)
 55:   1084.98   0.279167  1410.79  0.080294  (-0.265794 -0.030960  0.093215)
 56:   1120.34   0.014197   71.75  0.003954  ( 0.014671  0.039463  0.046711)
 57:   1325.57   0.004152   20.98  0.000978  (-0.006851  0.025752 -0.016352)
 58:   1325.63   0.011766   59.46  0.002770  (-0.013910  0.038017 -0.033631)
 59:   1326.54   0.000383    1.94  0.000090  ( 0.001865  0.008489  0.003815)
 60:   1326.71   0.014037   70.94  0.003302  (-0.010461 -0.037448 -0.042307)
 61:   1340.92   0.016371   82.73  0.003810  (-0.057491 -0.007695  0.021110)
 62:   1342.12   0.000016    0.08  0.000004  ( 0.000750  0.000968  0.001452)
 63:   1425.85   0.000019    0.10  0.000004  (-0.001401 -0.001259  0.000803)
 64:   1425.87   0.000014    0.07  0.000003  ( 0.000068  0.000784  0.001563)
 65:   1435.75   0.000525    2.65  0.000114  (-0.008536  0.005790 -0.002775)
 66:   1436.04   0.000018    0.09  0.000004  (-0.001603  0.000643 -0.000932)
 67:   1436.91   0.000088    0.45  0.000019  ( 0.000752  0.002812  0.003270)
 68:   1437.37   0.000004    0.02  0.000001  (-0.000292 -0.000802  0.000410)
 69:   1445.35   0.002560   12.94  0.000553  ( 0.004527  0.011471  0.020018)
 70:   1445.44   0.001016    5.13  0.000219  (-0.000728 -0.014781  0.000593)
 71:   1446.77   0.003064   15.48  0.000661  (-0.007161  0.017629 -0.017288)
 72:   1446.83   0.000682    3.45  0.000147  (-0.001154  0.012062 -0.000535)
 73:   1461.54   0.006952   35.13  0.001484  (-0.034623 -0.005839  0.015858)
 74:   1461.77   0.000645    3.26  0.000138  (-0.007855 -0.007470 -0.004490)
 75:   3059.74   0.000887    4.48  0.000090  (-0.000563  0.008714  0.003767)
 76:   3059.78   0.000899    4.54  0.000092  (-0.003570 -0.002000 -0.008658)
 77:   3061.94   0.000730    3.69  0.000074  ( 0.003998 -0.002193  0.007322)
 78:   3061.99   0.000883    4.46  0.000090  (-0.003051  0.008867 -0.001449)
 79:   3065.76   0.000490    2.47  0.000050  (-0.006070  0.000842 -0.003506)
 80:   3065.79   0.000445    2.25  0.000045  (-0.001960  0.005247  0.003732)
 81:   3153.58   0.000072    0.36  0.000007  ( 0.001594 -0.000875  0.001942)
 82:   3153.83   0.000075    0.38  0.000007  ( 0.001265 -0.002415  0.000173)
 83:   3157.19   0.000266    1.34  0.000026  (-0.003258  0.003553  0.001746)
 84:   3157.21   0.000349    1.76  0.000034  (-0.005342  0.000295 -0.002417)
 85:   3157.92   0.000043    0.22  0.000004  ( 0.000597 -0.001264  0.001506)
 86:   3158.02   0.000045    0.23  0.000004  ( 0.000625 -0.001788  0.000948)
 87:   3159.42   0.000182    0.92  0.000018  (-0.003224 -0.002544 -0.001064)
 88:   3159.48   0.000207    1.05  0.000020  (-0.002217  0.001660  0.003581)
 89:   3161.90   0.000155    0.78  0.000015  ( 0.002590  0.002916 -0.000239)
 90:   3161.96   0.000140    0.71  0.000014  (-0.001331  0.000328  0.003460)
 91:   3162.93   0.000226    1.14  0.000022  ( 0.000487 -0.004527  0.001235)
 92:   3162.94   0.000166    0.84  0.000016  ( 0.001033  0.000092  0.003910)

* The epsilon (eps) is given for a Dirac delta lineshape.
** The dipole moment derivative (T) already includes vibrational overlap.

The first frequency considered to be a vibration is 6
The total number of vibrations considered is 87


--------------------------
THERMOCHEMISTRY AT 298.15K
--------------------------

Temperature         ...   298.15 K
Pressure            ...     1.00 atm
Total Mass          ...   310.91 AMU
Quasi RRHO          ...     True
Cut-Off Frequency   ...     1.00 cm^-1

Throughout the following assumptions are being made:
  (1) The electronic state is orbitally nondegenerate
      but the spin degeneracy is treated
  (2) There are no thermally accessible electronically excited states
  (3) Hindered rotations indicated by low frequency modes are not
      treated as such but are treated as vibrations and this may
      cause some error
  (4) All equations used are the standard statistical mechanics
      equations for an ideal gas
  (5) All vibrations are strictly harmonic

freq.      19.06  E(vib)   ...       0.57 
freq.      20.83  E(vib)   ...       0.56 
freq.      26.39  E(vib)   ...       0.56 
freq.      35.53  E(vib)   ...       0.54 
freq.      47.34  E(vib)   ...       0.53 
freq.      60.58  E(vib)   ...       0.51 
freq.      95.71  E(vib)   ...       0.47 
freq.     106.53  E(vib)   ...       0.45 
freq.     115.78  E(vib)   ...       0.44 
freq.     130.85  E(vib)   ...       0.42 
freq.     146.33  E(vib)   ...       0.41 
freq.     166.52  E(vib)   ...       0.39 
freq.     166.70  E(vib)   ...       0.39 
freq.     199.90  E(vib)   ...       0.35 
freq.     201.28  E(vib)   ...       0.35 
freq.     204.34  E(vib)   ...       0.35 
freq.     206.83  E(vib)   ...       0.35 
freq.     206.94  E(vib)   ...       0.35 
freq.     231.30  E(vib)   ...       0.32 
freq.     237.32  E(vib)   ...       0.32 
freq.     238.09  E(vib)   ...       0.32 
freq.     259.69  E(vib)   ...       0.30 
freq.     260.08  E(vib)   ...       0.30 
freq.     313.42  E(vib)   ...       0.25 
freq.     334.71  E(vib)   ...       0.24 
freq.     347.00  E(vib)   ...       0.23 
freq.     348.22  E(vib)   ...       0.23 
freq.     380.28  E(vib)   ...       0.21 
freq.     420.40  E(vib)   ...       0.18 
freq.     476.03  E(vib)   ...       0.15 
freq.     481.31  E(vib)   ...       0.15 
freq.     681.71  E(vib)   ...       0.08 
freq.     682.01  E(vib)   ...       0.08 
freq.     763.35  E(vib)   ...       0.06 
freq.     763.37  E(vib)   ...       0.06 
freq.     766.53  E(vib)   ...       0.06 
freq.     766.65  E(vib)   ...       0.06 
freq.     779.37  E(vib)   ...       0.05 
freq.     779.44  E(vib)   ...       0.05 
freq.     868.36  E(vib)   ...       0.04 
freq.     868.71  E(vib)   ...       0.04 
freq.     871.84  E(vib)   ...       0.04 
freq.     872.54  E(vib)   ...       0.04 
freq.     955.82  E(vib)   ...       0.03 
freq.     955.97  E(vib)   ...       0.03 
freq.     966.63  E(vib)   ...       0.03 
freq.     967.16  E(vib)   ...       0.03 
freq.     967.81  E(vib)   ...       0.03 
freq.     968.55  E(vib)   ...       0.03 
freq.    1084.98  E(vib)   ...       0.02 
freq.    1120.34  E(vib)   ...       0.01 
freq.    1325.57  E(vib)   ...       0.01 
freq.    1325.63  E(vib)   ...       0.01 
freq.    1326.54  E(vib)   ...       0.01 
freq.    1326.71  E(vib)   ...       0.01 
freq.    1340.92  E(vib)   ...       0.01 
freq.    1342.12  E(vib)   ...       0.01 
freq.    1425.85  E(vib)   ...       0.00 
freq.    1425.87  E(vib)   ...       0.00 
freq.    1435.75  E(vib)   ...       0.00 
freq.    1436.04  E(vib)   ...       0.00 
freq.    1436.91  E(vib)   ...       0.00 
freq.    1437.37  E(vib)   ...       0.00 
freq.    1445.35  E(vib)   ...       0.00 
freq.    1445.44  E(vib)   ...       0.00 
freq.    1446.77  E(vib)   ...       0.00 
freq.    1446.83  E(vib)   ...       0.00 
freq.    1461.54  E(vib)   ...       0.00 
freq.    1461.77  E(vib)   ...       0.00 
freq.    3059.74  E(vib)   ...       0.00 
freq.    3059.78  E(vib)   ...       0.00 
freq.    3061.94  E(vib)   ...       0.00 
freq.    3061.99  E(vib)   ...       0.00 
freq.    3065.76  E(vib)   ...       0.00 
freq.    3065.79  E(vib)   ...       0.00 
freq.    3153.58  E(vib)   ...       0.00 
freq.    3153.83  E(vib)   ...       0.00 
freq.    3157.19  E(vib)   ...       0.00 
freq.    3157.21  E(vib)   ...       0.00 
freq.    3157.92  E(vib)   ...       0.00 
freq.    3158.02  E(vib)   ...       0.00 
freq.    3159.42  E(vib)   ...       0.00 
freq.    3159.48  E(vib)   ...       0.00 
freq.    3161.90  E(vib)   ...       0.00 
freq.    3161.96  E(vib)   ...       0.00 
freq.    3162.93  E(vib)   ...       0.00 
freq.    3162.94  E(vib)   ...       0.00 

------------
INNER ENERGY
------------

The inner energy is: U= E(el) + E(ZPE) + E(vib) + E(rot) + E(trans)
    E(el)   - is the total energy from the electronic structure calculation
              = E(kin-el) + E(nuc-el) + E(el-el) + E(nuc-nuc)
    E(ZPE)  - the the zero temperature vibrational energy from the frequency calculation
    E(vib)  - the the finite temperature correction to E(ZPE) due to population
              of excited vibrational states
    E(rot)  - is the rotational thermal energy
    E(trans)- is the translational thermal energy

Summary of contributions to the inner energy U:
Electronic energy                ...  -3255.81299967 Eh
Zero point energy                ...      0.24037125 Eh     150.83 kcal/mol
Thermal vibrational correction   ...      0.01922649 Eh      12.06 kcal/mol
Thermal rotational correction    ...      0.00141627 Eh       0.89 kcal/mol
Thermal translational correction ...      0.00141627 Eh       0.89 kcal/mol
-----------------------------------------------------------------------
Total thermal energy                  -3255.55056938 Eh


Summary of corrections to the electronic energy:
(perhaps to be used in another calculation)
Total thermal correction                  0.02205904 Eh      13.84 kcal/mol
Non-thermal (ZPE) correction              0.24037125 Eh     150.83 kcal/mol
-----------------------------------------------------------------------
Total correction                          0.26243028 Eh     164.68 kcal/mol


--------
ENTHALPY
--------

The enthalpy is H = U + kB*T
                kB is Boltzmann's constant
Total thermal energy              ...  -3255.55056938 Eh 
Thermal Enthalpy correction       ...      0.00094421 Eh       0.59 kcal/mol
-----------------------------------------------------------------------
Total Enthalpy                    ...  -3255.54962517 Eh


Note: Only C1 symmetry has been detected, increase convergence thresholds 
      if your molecule has a higher symmetry. Symmetry factor of 1.0 is   
      used for the rotational entropy correction. 
 

Note: Rotational entropy computed according to Herzberg 
Infrared and Raman Spectra, Chapter V,1, Van Nostrand Reinhold, 1945 
Point Group:  C1, Symmetry Number:   1  
Rotational constants in cm-1:     0.022327     0.007449     0.007389 

Vibrational entropy computed according to the QRRHO of S. Grimme
Chem.Eur.J. 2012 18 9955 using a reference frequency of 100.0 cm-1


-------
ENTROPY
-------

The entropy contributions are T*S = T*(S(el)+S(vib)+S(rot)+S(trans))
     S(el)   - electronic entropy
     S(vib)  - vibrational entropy
     S(rot)  - rotational entropy
     S(trans)- translational entropy
The entropies will be listed as multiplied by the temperature to get
units of energy

Electronic entropy                ...      0.00169175 Eh      1.06 kcal/mol
Vibrational entropy               ...      0.03580397 Eh     22.47 kcal/mol
Rotational entropy                ...      0.01593566 Eh     10.00 kcal/mol
Translational entropy             ...      0.02047778 Eh     12.85 kcal/mol
-----------------------------------------------------------------------
Final entropy term                ...      0.07390915 Eh     46.38 kcal/mol

In case the symmetry of your molecule has not been determined correctly
or in case you have a reason to use a different symmetry number we print 
out the resulting rotational entropy values for sn=1,12:

 non-linear molecules -----------------------------------
|  sn= 1 | S(rot)=       0.01593566 Eh     10.00 kcal/mol|
|  sn= 2 | S(rot)=       0.01528120 Eh      9.59 kcal/mol|
|  sn= 3 | S(rot)=       0.01489837 Eh      9.35 kcal/mol|
|  sn= 4 | S(rot)=       0.01462675 Eh      9.18 kcal/mol|
|  sn= 5 | S(rot)=       0.01441606 Eh      9.05 kcal/mol|
|  sn= 6 | S(rot)=       0.01424391 Eh      8.94 kcal/mol|
|  sn= 7 | S(rot)=       0.01409837 Eh      8.85 kcal/mol|
|  sn= 8 | S(rot)=       0.01397229 Eh      8.77 kcal/mol|
|  sn= 9 | S(rot)=       0.01386108 Eh      8.70 kcal/mol|
|  sn=10 | S(rot)=       0.01376160 Eh      8.64 kcal/mol|
|  sn=11 | S(rot)=       0.01367161 Eh      8.58 kcal/mol|
|  sn=12 | S(rot)=       0.01358946 Eh      8.53 kcal/mol|
 linear molecules ---------------------------------------
|  Dinfh | S(rot)=       0.00995959 Eh      6.25 kcal/mol|
|  Cinfv | S(rot)=       0.01061405 Eh      6.66 kcal/mol|
 --------------------------------------------------------


-------------------
GIBBS FREE ENERGY
-------------------

The Gibbs free energy is G = H - T*S

Total enthalpy                    ...  -3255.54962517 Eh 
Total entropy correction          ...     -0.07390915 Eh    -46.38 kcal/mol
-----------------------------------------------------------------------
Final Gibbs free energy         ...  -3255.62353432 Eh

For completeness - the Gibbs free energy minus the electronic energy
G-E(el)                           ...      0.18946534 Eh    118.89 kcal/mol


Maximum memory used throughout the entire PROP-calculation: 486.3 MB

--------------------------------
SUGGESTED CITATIONS FOR THIS RUN
--------------------------------

Below you find a list of papers that are relevant to this ORCA run
We neither can nor want to force you to cite these papers, but we appreciate if you do
You receive ORCA, which is the product of decades of hard work by many enthusiastic individuals, for free
The only thing we kindly ask in return is that you cite our papers,
We deeply appreciate it, if you show your appreciation for ORCA by not just citing the generic ORCA reference.

Please note that relegating all ORCA citations to the supporting information does *not* help us.
SI sections are not indexed - citations you put there will not count into any citation statistics
But we need these citations in order to attract the funding resources that allow us to do what we are doing

Therefore, if you are a happy ORCA user, please consider citing a few of the papers listed below in the main body of your paper

In addition to the list printed below, the program has created the file VOFZEV-S6.bibtex that contains the list in bibtex format
You can import this file easily into all common literature databanks and citation aid programs


List of essential papers. We consider these as the minimum necessary citations

  1. Neese,F.
     Software update: the ORCA program system, version 5.0
     WIRES Comput. Molec. Sci., 2022 12(1)e1606
     doi.org/10.1002/wcms.1606

List of papers to cite with high priority. The work reported in these papers was absolutely
necessary for this run to complete.
Our perspective: the developers of density functionals and basis sets usually get cited in chemistry papers
Good! But without the algorithms to do something with them, the functionals or basis sets would not do anything.
Hence, in our opinion, the algorithm design and method developments papers are equally worthy of getting cited

  1. Neese,F.
     An improvement of the resolution of the identity approximation for the formation of the Coulomb matrix
     J. Comp. Chem., 2003 24(14)1740-1747
     doi.org/10.1002/jcc.10318
  2. Neese,F.; Wennmohs,F.; Hansen,A.; Becker,U.
     Efficient, approximate and parallel Hartree-Fock and hybrid DFT calculations. A 'chain-of-spheres' algorithm for the Hartree-Fock exchange
     Chem. Phys., 2009 356(1-3)98-109
     doi.org/10.1016/j.chemphys.2008.10.036
  3. Bykov,D.; Petrenko,T.; Izsak,R.; Kossmann,S.; Becker,U.; Valeev,E.; Neese,F.
     Efficient implementation of the analytic second derivatives of Hartree-Fock and hybrid DFT energies: a detailed analysis of different approximations
     Molec. Phys., 2015 113 1961-1977
     doi.org/10.1080/00268976.2015.1025114
  4. Helmich-Paris,B.; de Souza,B.; Neese,F.; Izsák,R.
     An improved chain of spheres for exchange algorithm
     J. Chem. Phys., 2021 155 104109
     doi.org/doi: 10.1063/5.0058766.
  5. Neese,F.
     The SHARK Integral Generation and Digestion System
     J. Comp. Chem., 2022  1-16
     doi.org/10.1002/jcc.26942

List of suggested additional citations. These are papers that are important in the 'surrounding' of 
of this run, or papers that preceded the highly important papers. If you like your results we are grateful for a citation.

  1. Izsak,R.; Neese,F.
     An overlap fitted chain of spheres exchange method
     J. Chem. Phys., 2011 135 144105
     doi.org/10.1063/1.3646921
  2. Izsak,R.; Hansen,A.; Neese,F.
     The resolution of identity and chain of spheres approximations for the LPNO-CCSD singles Fock term
     Molec. Phys., 2012 110 2413-2417
     doi.org/10.1080/00268976.2012.687466
  3. Neese,F.
     The ORCA program system
     WIRES Comput. Molec. Sci., 2012 2(1)73-78
     doi.org/10.1002/wcms.81
  4. Izsak,R.; Neese,F.; Klopper,W.
     Robust fitting techniques in the chain of spheres approximation to the Fock exchange: The role of the complementary space
     J. Chem. Phys., 2013 139 
     doi.org/10.1063/1.4819264
  5. Neese,F.
     Software update: the ORCA program system, version 4.0
     WIRES Comput. Molec. Sci., 2018 8(1)1-6
     doi.org/10.1002/wcms.1327
  6. Neese,F.; Wennmohs,F.; Becker,U.; Riplinger,C.
     The ORCA quantum chemistry program package
     J. Chem. Phys., 2020 152 Art. No. L224108
     doi.org/10.1063/5.0004608

List of optional additional citations

  1. Neese,F.
     Approximate second-order SCF convergence for spin unrestricted wavefunctions
     Chem. Phys. Lett., 2000 325(1-3)93-98
     doi.org/10.1016/s0009-2614(00)00662-x

Timings for individual modules:

Sum of individual times          ...     3497.882 sec (=  58.298 min)
Startup calculation              ...      171.945 sec (=   2.866 min)   4.9 %
SCF iterations                   ...     1659.880 sec (=  27.665 min)  47.5 %
Property integrals               ...      400.090 sec (=   6.668 min)  11.4 %
SCF Response                     ...      460.903 sec (=   7.682 min)  13.2 %
Property calculations            ...      316.246 sec (=   5.271 min)   9.0 %
SCF Gradient evaluation          ...      488.356 sec (=   8.139 min)  14.0 %
Geometry relaxation              ...        0.461 sec (=   0.008 min)   0.0 %
                             ****ORCA TERMINATED NORMALLY****
TOTAL RUN TIME: 0 days 0 hours 59 minutes 12 seconds 394 msec
