
                                 *****************
                                 * O   R   C   A *
                                 *****************

                                            #,                                       
                                            ###                                      
                                            ####                                     
                                            #####                                    
                                            ######                                   
                                           ########,                                 
                                     ,,################,,,,,                         
                               ,,#################################,,                 
                          ,,##########################################,,             
                       ,#########################################, ''#####,          
                    ,#############################################,,   '####,        
                  ,##################################################,,,,####,       
                ,###########''''           ''''###############################       
              ,#####''   ,,,,##########,,,,          '''####'''          '####       
            ,##' ,,,,###########################,,,                        '##       
           ' ,,###''''                  '''############,,,                           
         ,,##''                                '''############,,,,        ,,,,,,###''
      ,#''                                            '''#######################'''  
     '                                                          ''''####''''         
             ,#######,   #######,   ,#######,      ##                                
            ,#'     '#,  ##    ##  ,#'     '#,    #''#        ,####,   ,####,        
            ##       ##  ##   ,#'  ##            #'  '#       #'       #'  '#        
            ##       ##  #######   ##           ,######,      #####,   #    #        
            '#,     ,#'  ##    ##  '#,     ,#' ,#      #,     #,   #   #,  ,#        
             '#######'   ##     ##  '#######'  #'      '#     '####' # '####'        



                #########################################################
                #                        -***-                          #
                #          Department of theory and spectroscopy        #
                #                                                       #
                #                      Frank Neese                      #
                #                                                       #
                #     Directorship, Architecture, Infrastructure        #
                #                    SHARK, DRIVERS                     #
                #        Core code/Algorithms in most modules           #
                #                                                       #
                #        Max Planck Institute fuer Kohlenforschung      #
                #                Kaiser Wilhelm Platz 1                 #
                #                 D-45470 Muelheim/Ruhr                 #
                #                      Germany                          #
                #                                                       #
                #                  All rights reserved                  #
                #                        -***-                          #
                #########################################################


                         Program Version 6.0.1  -  RELEASE   -


 With contributions from (in alphabetic order):
[Max-Planck-Institut fuer Kohlenforschung]                               
  Daniel Aravena         : Magnetic Suceptibility                        
  Michael Atanasov       : Ab Initio Ligand Field Theory (pilot matlab implementation)
  Alexander A. Auer      : GIAO ZORA, VPT2 properties, NMR spectrum      
  Ute Becker             : All parallelization in ORCA, NUMFREQ, NUMCALC 
  Giovanni Bistoni       : ED, misc. LED, open-shell LED, HFLD           
  Martin Brehm           : Molecular dynamics                            
  Dmytro Bykov           : pre 5.0 version of the SCF Hessian            
  Marcos Casanova-Páez   : Triplet and SCS-CIS(D). UHF-(DLPNO)-IP/EA/STEOM-CCSD. UHF-CVS-IP/STEOM-CCSD   
  Vijay G. Chilkuri      : MRCI spin determinant printing, contributions to CSF-ICE 
  Pauline Colinet        : FMM embedding                                 
  Dipayan Datta          : RHF DLPNO-CCSD density                        
  Achintya Kumar Dutta   : EOM-CC, STEOM-CC                              
  Nicolas Foglia         : Exact transition moments, OPA infrastructure, MCD improvements    
  Dmitry Ganyushin       : Spin-Orbit,Spin-Spin,Magnetic field MRCI      
  Miquel Garcia-Rates    : C-PCM and meta-GGA Hessian, CCSD/C-PCM, Gaussian charge scheme 
  Tiago L. C. Gouveia    : GS-ROHF, GS-ROCIS                             
  Yang Guo               : DLPNO-NEVPT2, F12-NEVPT2, CIM, IAO-localization        
  Andreas Hansen         : Spin unrestricted coupled pair/coupled cluster methods 
  Ingolf Harden          : AUTO-CI MPn and infrastructure                
  Benjamin Helmich-Paris : MC-RPA, TRAH-(SCF,CASSCF), AVAS, COSX integrals, SCF dyn. polar. 
  Lee Huntington         : MR-EOM, pCC                                   
  Robert Izsak           : Overlap fitted RIJCOSX, COSX-SCS-MP3, EOM     
  Riya Kayal             : Wick's Theorem for AUTO-CI, AUTO-CI UHF-CCSDT 
  Emily Kempfer          : AUTO-CI, RHF CISDT and CCSDT                  
  Christian Kollmar      : KDIIS, OOCD, Brueckner-CCSD(T), CCSD density, CASPT2, CASPT2-K, improved NEVPT2 
  Axel Koslowski         : Symmetry handling                             
  Simone Kossmann        : meta-GGA functionals, TD-DFT gradient, OOMP2, (MP2 Hessian; deprecated post 5.0) 
  Lucas Lang             : DCDCAS                                        
  Marvin Lechner         : AUTO-CI (C++ implementation), FIC-MRCC        
  Spencer Leger          : CASSCF response                               
  Dagmar Lenk            : GEPOL surface, SMD, ORCA-2-JSON               
  Dimitrios Liakos       : Extrapolation schemes; Compound Job, initial MDCI parallelization 
  Dimitrios Manganas     : Further ROCIS development; embedding schemes. LFT, Crystal Embedding 
  Dimitrios Pantazis     : SARC Basis sets                               
  Anastasios Papadopoulos: AUTO-CI, single reference methods and gradients 
  Taras Petrenko         : pre 6.0 DFT Hessian and TD-DFT gradient, (ASA, deprecated), ECA, 1-Electron XAS/XES, NRVS 
  Peter Pinski           : DLPNO-MP2, DLPNO-MP2 Gradient                 
  Christoph Reimann      : Effective Core Potentials                     
  Marius Retegan         : Local ZFS, SOC                                
  Christoph Riplinger    : Optimizer, TS searches, QM/MM, DLPNO-CCSD(T), (RO)-DLPNO pert. Triples 
  Michael Roemelt        : Original ROCIS implementation                 
  Masaaki Saitow         : Open-shell DLPNO-CCSD energy and density      
  Barbara Sandhoefer     : DKH picture change effects                    
  Kantharuban Sivalingam : CASSCF convergence/infrastructure, NEVPT2 and variants, FIC-MRCI 
  Bernardo de Souza      : ESD, SOC TD-DFT                               
  Georgi L. Stoychev     : AutoAux, RI-MP2 NMR, DLPNO-MP2 response, X2C  
  Van Anh Tran           : RI-MP2 g-tensors                              
  Willem Van den Heuvel  : Paramagnetic NMR                              
  Zikuan Wang            : NOTCH, Electric field optimization            
  Frank Wennmohs         : Technical directorship and infrastructure     
  Hang Xu                : AUTO-CI-Response properties                   
                                                                         
[FACCTs GmbH]                                                            
  Markus Bursch, Miquel Garcia-Rates, Christoph Riplinger, Bernardo de Souza, Georgi L. Stoychev 
                                                                 
  APM, Basis sets (HGBS, AHGBS, def-TZVP (Ac-Lr), def2-XVPD (La-Lu)), CI-OPT, improved COSX, DLPNO-Multilevel,           
  DOCKER, DRACO, updates on ESD, GOAT, IRC, LR-CPCM, MBIS, meta-GGA TD-DFT gradient, ML-optimized integration grids, 
  MM, NACMEs, nearIR, NEB, NEB-TS, NL-DFT gradient (VV10), 2- and 3-layer-ONIOM, interface openCOSMO-RS, QMMM,   
  Crystal-QMMM, SF, symmetry and pop. for TD-DFT, r2SCAN hybrids, SOLVATOR                                   
                                                                         
[Other institutions]                                                     
  V. Asgeirsson          : NEB                                           
  Christoph Bannwarth    : sTDA-DFT, sTD-DFT, PBEh-3c, B97-3c, D3        
  Sebastian Ehlert       : rSCAN, r2SCAN, r2SCAN-3c, D4, dhf basis sets  
  Marvin Friede          : D4 for Fr, Ra, Ac-Lr                          
  Lars Goerigk           : TD-DFT with DH, B97 family of functionals     
  Stefan Grimme          : VdW corrections, initial TS optimization, DFT functionals, gCP, sTDA/sTD-DF 
  Waldemar Hujo          : DFT-NL                                        
  H. Jonsson             : NEB                                           
  Holger Kruse           : gCP                                           
  Marcel Mueller         : wB97X-3c, vDZP basis set                      
  Hagen Neugebauer       : wr2SCAN                                       
  Tobias Risthaus        : range-separated hybrid DFT                    
  Lukas Wittmann         : regularized MP2, r2SCAN double-hybrids, wr2SCAN        
                                                                         
We gratefully acknowledge several colleagues who have allowed us to      
interface, adapt or use parts of their codes:                            
  Ed Valeev, F. Pavosevic, A. Kumar             : LibInt (2-el integral package), F12 methods 
  Garnet Chan, S. Sharma, J. Yang, R. Olivares  : DMRG                   
  Ulf Ekstrom                                   : XCFun DFT Library      
  Mihaly Kallay                                 : mrcc  (arbitrary order and MRCC methods)
  Frank Weinhold                                : gennbo (NPA and NBO analysis)           
  Simon Mueller                                 : openCOSMO-RS                            
  Christopher J. Cramer and Donald G. Truhlar   : smd solvation model                     
  S Lehtola, MJT Oliveira, MAL Marques          : LibXC Library                           
  Liviu Ungur et al                             : ANISO software                          


 Your calculation uses the libint2 library for the computation of 2-el integrals
 For citations please refer to: http://libint.valeyev.net

 Your ORCA version has been built with support for libXC version: 6.2.2
 For citations please refer to: https://libxc.gitlab.io

 This ORCA versions uses:
   CBLAS   interface :  Fast vector & matrix operations
   LAPACKE interface :  Fast linear algebra routines
   SCALAPACK package :  Parallel linear algebra routines
   Shared memory     :  Shared parallel matrices
   BLAS/LAPACK       :  OpenBLAS 0.3.27  USE64BITINT DYNAMIC_ARCH NO_AFFINITY Cooperlake SINGLE_THREADED
        Core in use  :  Cooperlake
   Copyright (c) 2011-2014, The OpenBLAS Project


NOTE: MaxCore=3600 MB was set to SCF,MP2,MDCI,CIPSI,MRCI and CIS
      => If you want to overwrite this, your respective input block should be placed after the MaxCore statement
Warning: RI is on but no J-basis has been assigned. Assigning Def2/J (nothing to worry about!)
================================================================================

----- Orbital basis set information -----
Your calculation utilizes the basis: def2-TZVP
   F. Weigend and R. Ahlrichs, Phys. Chem. Chem. Phys. 7, 3297 (2005).

----- AuxJ basis set information -----
Your calculation utilizes the auxiliary basis: def2/J
   F. Weigend, Phys. Chem. Chem. Phys. 8, 1057 (2006).

================================================================================
                                        WARNINGS
                       Please study these warnings very carefully!
================================================================================


WARNING: your system is open-shell and RHF/RKS was chosen
  ===> : WILL SWITCH to UHF/UKS


WARNING: Geometry Optimization
  ===> : Switching off AutoStart
         For restart on a previous wavefunction, please use MOREAD

================================================================================
                                       INPUT FILE
================================================================================
NAME = WUQBAN-S6.inp
|  1> ! PBE0 def2-TZVP  Opt Freq DEFGRID3
|  2> 
|  3> %maxcore 3600
|  4> 
|  5> %pal
|  6>     nprocs 16
|  7> end
|  8> 
|  9> *xyz 0 6
| 10> Fe 4.3521 14.9949 6.1325
| 11> Cl 5.6936 13.8684 7.4868
| 12> Cl 4.7945 14.5012 3.9938
| 13> O 5.1416 16.6939 6.0485
| 14> N 2.962 15.9377 7.47
| 15> N 2.6464 13.7485 6.1657
| 16> N 1.8252 15.1945 7.7645
| 17> C 2.5449 12.6088 5.4488
| 18> H 3.1796 12.4423 4.7899
| 19> C 1.5509 11.6866 5.647
| 20> H 1.5292 10.8924 5.1627
| 21> C 0.5808 11.9762 6.5921
| 22> H -0.1101 11.3716 6.7422
| 23> C 0.6287 13.1408 7.3039
| 24> H -0.0291 13.3456 7.9276
| 25> C 1.6923 14.0142 7.0707
| 26> C 0.9384 15.5474 8.8368
| 27> C 0.0011 16.5434 8.6476
| 28> H -0.0545 16.9937 7.8361
| 29> C -0.8614 16.8623 9.6993
| 30> H -1.4903 17.5402 9.5973
| 31> C -0.7781 16.1734 10.8789
| 32> H -1.3632 16.3799 11.5719
| 33> C 0.1539 15.1829 11.0536
| 34> H 0.1949 14.7214 11.8603
| 35> C 1.0274 14.8712 10.0405
| 36> H 1.6719 14.2111 10.1613
| 37> C 3.1648 17.0383 8.1062
| 38> H 2.5414 17.2816 8.7507
| 39> C 4.2721 17.9117 7.8989
| 40> C 4.3888 19.0508 8.7226
| 41> H 3.7512 19.2004 9.3827
| 42> C 5.4198 19.9429 8.5749
| 43> H 5.4881 20.6848 9.1318
| 44> C 6.3666 19.7176 7.5735
| 45> H 7.071 20.3159 7.4656
| 46> C 6.2752 18.6299 6.7468
| 47> H 6.9172 18.5005 6.0867
| 48> C 5.2306 17.7114 6.8819
| 49> *
| 50> 
| 51>                          ****END OF INPUT****
================================================================================

                       *****************************
                       * Geometry Optimization Run *
                       *****************************

Geometry optimization settings:
Update method            Update   .... BFGS
Choice of coordinates    CoordSys .... (2022) Redundant Internals
Initial Hessian          InHess   .... Almloef's Model
Max. no of cycles        MaxIter  .... 117

Convergence Tolerances:
Energy Change            TolE     ....  5.0000e-06 Eh
Max. Gradient            TolMAXG  ....  3.0000e-04 Eh/bohr
RMS Gradient             TolRMSG  ....  1.0000e-04 Eh/bohr
Max. Displacement        TolMAXD  ....  4.0000e-03 bohr
RMS Displacement         TolRMSD  ....  2.0000e-03 bohr
Strict Convergence                .... False

------------------------------------------------------------------------------
                        ORCA OPTIMIZATION COORDINATE SETUP
------------------------------------------------------------------------------

The optimization will be done in redundant internal coordinates (2022)
Making redundant internal coordinates   ...  (2022 redundants) done
Evaluating the initial hessian          ...  (Almloef) done
Evaluating the coordinates              ...  done
Calculating the B-matrix                .... done
Calculating the G-matrix                .... done
Diagonalizing the G-matrix              .... done
Small eigenvalue found = 5.386e-03
Small eigenvalue found = 1.505e-02
Small eigenvalue found = 1.998e-02
Small eigenvalue found = 2.962e-02
The first mode is                       ....  116
The number of degrees of freedom        ....  111

    -----------------------------------------------------------------
                    Redundant Internal Coordinates


    -----------------------------------------------------------------
         Definition                    Initial Value    Approx d2E/dq
    -----------------------------------------------------------------
      1. B(Cl  1,Fe  0)                  2.2142         0.686871   
      2. B(Cl  2,Fe  0)                  2.2391         0.626903   
      3. B(O   3,Fe  0)                  1.8754         0.952013   
      4. B(N   4,Fe  0)                  2.1471         0.350794   
      5. B(N   5,Fe  0)                  2.1128         0.397905   
      6. B(N   6,N   4)                  1.3897         0.501672   
      7. B(C   7,N   5)                  1.3502         0.647591   
      8. B(H   8,C   7)                  0.9299         0.648412   
      9. B(C   9,C   7)                  1.3703         0.671645   
     10. B(H  10,C   9)                  0.9305         0.647062   
     11. B(C  11,C   9)                  1.3850         0.636420   
     12. B(H  12,C  11)                  0.9303         0.647518   
     13. B(C  13,C  11)                  1.3657         0.683035   
     14. B(H  14,C  13)                  0.9293         0.649784   
     15. B(C  15,N   5)                  1.3416         0.668455   
     16. B(C  15,C  13)                  1.3959         0.611466   
     17. B(C  15,N   6)                  1.3755         0.590112   
     18. B(C  16,N   6)                  1.4355         0.473387   
     19. B(C  17,C  16)                  1.3807         0.646501   
     20. B(H  18,C  17)                  0.9297         0.648825   
     21. B(C  19,C  17)                  1.3970         0.608880   
     22. B(H  20,C  19)                  0.9303         0.647450   
     23. B(C  21,C  19)                  1.3686         0.675977   
     24. B(H  22,C  21)                  0.9302         0.647749   
     25. B(C  23,C  21)                  1.3712         0.669432   
     26. B(H  24,C  23)                  0.9303         0.647500   
     27. B(C  25,C  23)                  1.3735         0.663814   
     28. B(C  25,C  16)                  1.3835         0.639905   
     29. B(H  26,C  25)                  0.9304         0.647147   
     30. B(C  27,N   4)                  1.2873         0.816002   
     31. B(H  28,C  27)                  0.9291         0.650354   
     32. B(C  29,C  27)                  1.4255         0.548500   
     33. B(C  30,C  29)                  1.4105         0.579367   
     34. B(H  31,C  30)                  0.9299         0.648501   
     35. B(C  32,C  30)                  1.3714         0.669088   
     36. B(H  33,C  32)                  0.9302         0.647769   
     37. B(C  34,C  32)                  1.3964         0.610230   
     38. B(H  35,C  34)                  0.9305         0.647045   
     39. B(C  36,C  34)                  1.3693         0.674256   
     40. B(H  37,C  36)                  0.9299         0.648508   
     41. B(C  38,C  36)                  1.3975         0.607755   
     42. B(C  38,C  29)                  1.4118         0.576747   
     43. B(C  38,O   3)                  1.3182         0.728363   
     44. A(O   3,Fe  0,N   5)          151.0467         0.542412   
     45. A(Cl  1,Fe  0,N   5)          100.3334         0.530122   
     46. A(Cl  1,Fe  0,N   4)          103.5702         0.517718   
     47. A(O   3,Fe  0,N   4)           84.4135         0.529662   
     48. A(N   4,Fe  0,N   5)           74.1318         0.450705   
     49. A(Cl  2,Fe  0,O   3)           94.2320         0.615417   
     50. A(Cl  1,Fe  0,Cl  2)          110.6302         0.601148   
     51. A(Cl  2,Fe  0,N   5)           92.5473         0.521095   
     52. A(Cl  1,Fe  0,O   3)          103.4887         0.626415   
     53. A(Cl  2,Fe  0,N   4)          145.0582         0.508944   
     54. A(Fe  0,O   3,C  38)          134.3770         0.538074   
     55. A(Fe  0,N   4,C  27)          125.5398         0.456577   
     56. A(Fe  0,N   4,N   6)          115.2629         0.415490   
     57. A(N   6,N   4,C  27)          118.7732         0.430390   
     58. A(C   7,N   5,C  15)          118.1549         0.437660   
     59. A(Fe  0,N   5,C  15)          117.8976         0.450518   
     60. A(Fe  0,N   5,C   7)          123.3861         0.447933   
     61. A(N   4,N   6,C  16)          122.1499         0.390806   
     62. A(N   4,N   6,C  15)          115.5321         0.406243   
     63. A(C  15,N   6,C  16)          121.8710         0.404753   
     64. A(H   8,C   7,C   9)          118.4957         0.395995   
     65. A(N   5,C   7,C   9)          123.0778         0.440932   
     66. A(N   5,C   7,H   8)          118.4266         0.390966   
     67. A(C   7,C   9,H  10)          121.0682         0.395851   
     68. A(H  10,C   9,C  11)          121.1527         0.392132   
     69. A(C   7,C   9,C  11)          117.7792         0.442457   
     70. A(H  12,C  11,C  13)          119.7458         0.397070   
     71. A(C   9,C  11,C  13)          120.6231         0.443805   
     72. A(C   9,C  11,H  12)          119.6310         0.392180   
     73. A(H  14,C  13,C  15)          120.9018         0.389685   
     74. A(C  11,C  13,C  15)          118.2425         0.440607   
     75. A(C  11,C  13,H  14)          120.8556         0.397314   
     76. A(N   6,C  15,C  13)          121.7520         0.426361   
     77. A(N   5,C  15,C  13)          122.0496         0.436015   
     78. A(N   5,C  15,N   6)          116.1971         0.430402   
     79. A(C  17,C  16,C  25)          121.0290         0.439851   
     80. A(N   6,C  16,C  25)          119.3405         0.413264   
     81. A(N   6,C  16,C  17)          119.6261         0.414018   
     82. A(H  18,C  17,C  19)          120.6374         0.389297   
     83. A(C  16,C  17,C  19)          118.7261         0.435927   
     84. A(C  16,C  17,H  18)          120.6364         0.393399   
     85. A(H  20,C  19,C  21)          120.1622         0.396339   
     86. A(C  17,C  19,C  21)          119.7611         0.439445   
     87. A(C  17,C  19,H  20)          120.0767         0.389153   
     88. A(H  22,C  21,C  23)          119.5366         0.395695   
     89. A(C  19,C  21,C  23)          120.9838         0.447046   
     90. A(C  19,C  21,H  22)          119.4795         0.396371   
     91. A(H  24,C  23,C  25)          119.9341         0.395084   
     92. A(C  21,C  23,C  25)          120.1463         0.445578   
     93. A(C  21,C  23,H  24)          119.9195         0.395668   
     94. A(C  23,C  25,H  26)          120.3819         0.395046   
     95. A(C  16,C  25,H  26)          120.2832         0.392516   
     96. A(C  16,C  25,C  23)          119.3349         0.441956   
     97. A(H  28,C  27,C  29)          117.4937         0.382438   
     98. A(N   4,C  27,C  29)          125.0541         0.443218   
     99. A(N   4,C  27,H  28)          117.4522         0.407401   
    100. A(C  27,C  29,C  30)          118.3040         0.419518   
    101. A(C  30,C  29,C  38)          118.6244         0.423296   
    102. A(C  27,C  29,C  38)          123.0401         0.419179   
    103. A(H  31,C  30,C  32)          119.1639         0.395740   
    104. A(C  29,C  30,C  32)          121.6441         0.434724   
    105. A(C  29,C  30,H  31)          119.1920         0.385905   
    106. A(H  33,C  32,C  34)          120.5469         0.389337   
    107. A(C  30,C  32,C  34)          118.8175         0.438809   
    108. A(C  30,C  32,H  33)          120.6355         0.395662   
    109. A(C  32,C  34,H  35)          119.5181         0.389261   
    110. A(H  35,C  34,C  36)          119.4263         0.396118   
    111. A(C  32,C  34,C  36)          121.0557         0.439419   
    112. A(H  37,C  36,C  38)          119.5533         0.389138   
    113. A(C  34,C  36,C  38)          120.9048         0.439096   
    114. A(C  34,C  36,H  37)          119.5419         0.396275   
    115. A(C  29,C  38,C  36)          118.9382         0.426935   
    116. A(O   3,C  38,C  36)          119.7778         0.442335   
    117. A(O   3,C  38,C  29)          121.2711         0.438172   
    118. D(C  38,O   3,Fe  0,Cl  1)    -73.4463         0.005685   
    119. D(C  38,O   3,Fe  0,N   5)     71.1032         0.005685   
    120. D(C  38,O   3,Fe  0,Cl  2)    174.1538         0.005685   
    121. D(C  38,O   3,Fe  0,N   4)     29.2029         0.005685   
    122. D(C  27,N   4,Fe  0,Cl  2)   -109.1582         0.002108   
    123. D(N   6,N   4,Fe  0,N   5)      7.4844         0.002108   
    124. D(N   6,N   4,Fe  0,Cl  2)     78.4482         0.002108   
    125. D(C  27,N   4,Fe  0,Cl  1)     82.7998         0.002108   
    126. D(N   6,N   4,Fe  0,O   3)    167.8447         0.002108   
    127. D(N   6,N   4,Fe  0,Cl  1)    -89.5938         0.002108   
    128. D(C  15,N   5,Fe  0,Cl  1)     92.3138         0.002280   
    129. D(C   7,N   5,Fe  0,O   3)    136.0594         0.002280   
    130. D(C   7,N   5,Fe  0,N   4)    179.7684         0.002280   
    131. D(C   7,N   5,Fe  0,Cl  2)     32.5854         0.002280   
    132. D(C   7,N   5,Fe  0,Cl  1)    -78.9212         0.002280   
    133. D(C  15,N   5,Fe  0,Cl  2)   -156.1795         0.002280   
    134. D(C  16,N   6,N   4,C  27)     -5.9315         0.023217   
    135. D(C  15,N   6,N   4,C  27)   -178.3889         0.023217   
    136. D(C  16,N   6,N   4,Fe  0)    167.0101         0.023217   
    137. D(C  15,N   6,N   4,Fe  0)     -5.4473         0.023217   
    138. D(C   9,C   7,N   5,C  15)     -3.1400         0.034203   
    139. D(C   9,C   7,N   5,Fe  0)    168.0739         0.034203   
    140. D(H   8,C   7,N   5,Fe  0)    -11.9162         0.034203   
    141. D(H   8,C   7,N   5,C  15)    176.8698         0.034203   
    142. D(C  11,C   9,C   7,H   8)   -177.2799         0.031561   
    143. D(C  11,C   9,C   7,N   5)      2.7299         0.031561   
    144. D(H  10,C   9,C   7,H   8)      2.7438         0.031561   
    145. D(H  10,C   9,C   7,N   5)   -177.2464         0.031561   
    146. D(C  13,C  11,C   9,C   7)     -0.4662         0.028120   
    147. D(H  12,C  11,C   9,H  10)     -0.5556         0.028120   
    148. D(H  12,C  11,C   9,C   7)    179.4682         0.028120   
    149. D(C  13,C  11,C   9,H  10)    179.5101         0.028120   
    150. D(C  15,C  13,C  11,H  12)    178.8611         0.032726   
    151. D(C  15,C  13,C  11,C   9)     -1.2047         0.032726   
    152. D(H  14,C  13,C  11,H  12)     -1.0733         0.032726   
    153. D(H  14,C  13,C  11,C   9)    178.8610         0.032726   
    154. D(N   6,C  15,C  13,H  14)      1.1689         0.025830   
    155. D(N   5,C  15,C  13,H  14)   -179.2633         0.025830   
    156. D(N   5,C  15,C  13,C  11)      0.8023         0.025830   
    157. D(C  13,C  15,N   6,C  16)      4.8663         0.027995   
    158. D(C  13,C  15,N   6,N   4)    177.3468         0.027995   
    159. D(N   5,C  15,N   6,C  16)   -174.7254         0.027995   
    160. D(N   5,C  15,N   6,N   4)     -2.2449         0.027995   
    161. D(C  13,C  15,N   5,C   7)      1.3059         0.036649   
    162. D(C  13,C  15,N   5,Fe  0)   -170.3967         0.036649   
    163. D(N   6,C  15,C  13,C  11)   -178.7654         0.025830   
    164. D(N   6,C  15,N   5,C   7)   -179.1037         0.036649   
    165. D(N   6,C  15,N   5,Fe  0)      9.1937         0.036649   
    166. D(C  25,C  16,N   6,C  15)     71.6500         0.017668   
    167. D(C  25,C  16,N   6,N   4)   -100.3327         0.017668   
    168. D(C  17,C  16,N   6,C  15)   -107.6036         0.017668   
    169. D(C  17,C  16,N   6,N   4)     80.4136         0.017668   
    170. D(C  19,C  17,C  16,C  25)      0.1164         0.029080   
    171. D(C  19,C  17,C  16,N   6)    179.3571         0.029080   
    172. D(H  18,C  17,C  16,N   6)     -0.6944         0.029080   
    173. D(H  18,C  17,C  16,C  25)   -179.9351         0.029080   
    174. D(C  21,C  19,C  17,H  18)    178.9544         0.025599   
    175. D(C  21,C  19,C  17,C  16)     -1.0971         0.025599   
    176. D(H  20,C  19,C  17,H  18)     -1.0013         0.025599   
    177. D(H  20,C  19,C  17,C  16)    178.9472         0.025599   
    178. D(C  23,C  21,C  19,C  17)      0.8954         0.032001   
    179. D(H  22,C  21,C  19,H  20)      0.9138         0.032001   
    180. D(H  22,C  21,C  19,C  17)   -179.0419         0.032001   
    181. D(C  23,C  21,C  19,H  20)   -179.1489         0.032001   
    182. D(C  25,C  23,C  21,H  22)   -179.7495         0.031337   
    183. D(C  25,C  23,C  21,C  19)      0.3132         0.031337   
    184. D(H  24,C  23,C  21,H  22)      0.2153         0.031337   
    185. D(H  24,C  23,C  21,C  19)   -179.7219         0.031337   
    186. D(H  26,C  25,C  23,H  24)     -1.1595         0.030775   
    187. D(H  26,C  25,C  23,C  21)    178.8053         0.030775   
    188. D(C  16,C  25,C  23,H  24)    178.7442         0.030775   
    189. D(C  16,C  25,C  23,C  21)     -1.2910         0.030775   
    190. D(H  26,C  25,C  16,C  17)   -179.0218         0.028449   
    191. D(H  26,C  25,C  16,N   6)      1.7353         0.028449   
    192. D(C  23,C  25,C  16,C  17)      1.0745         0.028449   
    193. D(C  23,C  25,C  16,N   6)   -178.1684         0.028449   
    194. D(C  29,C  27,N   4,N   6)   -179.0765         0.057048   
    195. D(C  29,C  27,N   4,Fe  0)      8.7729         0.057048   
    196. D(H  28,C  27,N   4,N   6)      0.9715         0.057048   
    197. D(H  28,C  27,N   4,Fe  0)   -171.1791         0.057048   
    198. D(C  38,C  29,C  27,H  28)   -174.9341         0.020577   
    199. D(C  38,C  29,C  27,N   4)      5.1140         0.020577   
    200. D(C  30,C  29,C  27,H  28)      2.9960         0.020577   
    201. D(C  30,C  29,C  27,N   4)   -176.9560         0.020577   
    202. D(C  32,C  30,C  29,C  38)     -1.3858         0.023059   
    203. D(C  32,C  30,C  29,C  27)   -179.4090         0.023059   
    204. D(H  31,C  30,C  29,C  38)    178.6608         0.023059   
    205. D(H  31,C  30,C  29,C  27)      0.6376         0.023059   
    206. D(C  34,C  32,C  30,H  31)   -179.4334         0.031303   
    207. D(C  34,C  32,C  30,C  29)      0.6132         0.031303   
    208. D(H  33,C  32,C  30,H  31)      0.6010         0.031303   
    209. D(H  33,C  32,C  30,C  29)   -179.3524         0.031303   
    210. D(C  36,C  34,C  32,H  33)   -179.9149         0.025719   
    211. D(C  36,C  34,C  32,C  30)      0.1195         0.025719   
    212. D(H  35,C  34,C  32,H  33)      0.0698         0.025719   
    213. D(H  35,C  34,C  32,C  30)   -179.8958         0.025719   
    214. D(C  38,C  36,C  34,H  35)    179.9665         0.031826   
    215. D(C  38,C  36,C  34,C  32)     -0.0487         0.031826   
    216. D(H  37,C  36,C  34,H  35)     -0.0087         0.031826   
    217. D(H  37,C  36,C  34,C  32)    179.9760         0.031826   
    218. D(C  29,C  38,C  36,H  37)    179.2397         0.025499   
    219. D(C  29,C  38,C  36,C  34)     -0.7355         0.025499   
    220. D(O   3,C  38,C  36,H  37)     -2.0492         0.025499   
    221. D(O   3,C  38,C  36,C  34)    177.9755         0.025499   
    222. D(C  36,C  38,C  29,C  30)      1.4190         0.022842   
    223. D(C  36,C  38,C  29,C  27)    179.3427         0.022842   
    224. D(O   3,C  38,C  29,C  30)   -177.2721         0.022842   
    225. D(O   3,C  38,C  29,C  27)      0.6517         0.022842   
    226. D(C  36,C  38,O   3,Fe  0)    156.0795         0.040044   
    227. D(C  29,C  38,O   3,Fe  0)    -25.2402         0.040044   
    -----------------------------------------------------------------

Number of atoms                         .... 39
Number of degrees of freedom            .... 227


         *************************************************************
         *                GEOMETRY OPTIMIZATION CYCLE   1            *
         *************************************************************
---------------------------------
CARTESIAN COORDINATES (ANGSTROEM)
---------------------------------
  Fe     4.352100   14.994900    6.132500
  Cl     5.693600   13.868400    7.486800
  Cl     4.794500   14.501200    3.993800
  O      5.141600   16.693900    6.048500
  N      2.962000   15.937700    7.470000
  N      2.646400   13.748500    6.165700
  N      1.825200   15.194500    7.764500
  C      2.544900   12.608800    5.448800
  H      3.179600   12.442300    4.789900
  C      1.550900   11.686600    5.647000
  H      1.529200   10.892400    5.162700
  C      0.580800   11.976200    6.592100
  H     -0.110100   11.371600    6.742200
  C      0.628700   13.140800    7.303900
  H     -0.029100   13.345600    7.927600
  C      1.692300   14.014200    7.070700
  C      0.938400   15.547400    8.836800
  C      0.001100   16.543400    8.647600
  H     -0.054500   16.993700    7.836100
  C     -0.861400   16.862300    9.699300
  H     -1.490300   17.540200    9.597300
  C     -0.778100   16.173400   10.878900
  H     -1.363200   16.379900   11.571900
  C      0.153900   15.182900   11.053600
  H      0.194900   14.721400   11.860300
  C      1.027400   14.871200   10.040500
  H      1.671900   14.211100   10.161300
  C      3.164800   17.038300    8.106200
  H      2.541400   17.281600    8.750700
  C      4.272100   17.911700    7.898900
  C      4.388800   19.050800    8.722600
  H      3.751200   19.200400    9.382700
  C      5.419800   19.942900    8.574900
  H      5.488100   20.684800    9.131800
  C      6.366600   19.717600    7.573500
  H      7.071000   20.315900    7.465600
  C      6.275200   18.629900    6.746800
  H      6.917200   18.500500    6.086700
  C      5.230600   17.711400    6.881900

----------------------------
CARTESIAN COORDINATES (A.U.)
----------------------------
  NO LB      ZA    FRAG     MASS         X           Y           Z
   0 Fe   26.0000    0    55.850    8.224277   28.336254   11.588746
   1 Cl   17.0000    0    35.453   10.759345   26.207478   14.148002
   2 Cl   17.0000    0    35.453    9.060292   27.403297    7.547188
   3 O     8.0000    0    15.999    9.716216   31.546899   11.430009
   4 N     7.0000    0    14.007    5.597369   30.117888   14.116254
   5 N     7.0000    0    14.007    5.000971   25.980900   11.651484
   6 N     7.0000    0    14.007    3.449128   28.713444   14.672779
   7 C     6.0000    0    12.011    4.809164   23.827179   10.296740
   8 H     1.0000    0     1.008    6.008573   23.512539    9.051599
   9 C     6.0000    0    12.011    2.930776   22.084473   10.671283
  10 H     1.0000    0     1.008    2.889769   20.583653    9.756089
  11 C     6.0000    0    12.011    1.097553   22.631738   12.457264
  12 H     1.0000    0     1.008   -0.208059   21.489210   12.740912
  13 C     6.0000    0    12.011    1.188071   24.832513   13.802371
  14 H     1.0000    0     1.008   -0.054991   25.219529   14.980993
  15 C     6.0000    0    12.011    3.197984   26.483000   13.361687
  16 C     6.0000    0    12.011    1.773319   29.380328   16.699132
  17 C     6.0000    0    12.011    0.002079   31.262495   16.341596
  18 H     1.0000    0     1.008   -0.102990   32.113439   14.808083
  19 C     6.0000    0    12.011   -1.627810   31.865129   18.329021
  20 H     1.0000    0     1.008   -2.816259   33.146174   18.136269
  21 C     6.0000    0    12.011   -1.470396   30.563297   20.558142
  22 H     1.0000    0     1.008   -2.576075   30.953525   21.867722
  23 C     6.0000    0    12.011    0.290829   28.691523   20.888277
  24 H     1.0000    0     1.008    0.368308   27.819414   22.412719
  25 C     6.0000    0    12.011    1.941505   28.102495   18.973795
  26 H     1.0000    0     1.008    3.159433   26.855087   19.202074
  27 C     6.0000    0    12.011    5.980605   32.197721   15.318498
  28 H     1.0000    0     1.008    4.802550   32.657491   16.536426
  29 C     6.0000    0    12.011    8.073099   33.848208   14.926758
  30 C     6.0000    0    12.011    8.293630   36.000795   16.483325
  31 H     1.0000    0     1.008    7.088741   36.283498   17.730733
  32 C     6.0000    0    12.011   10.241938   37.686619   16.204213
  33 H     1.0000    0     1.008   10.371006   39.088607   17.256601
  34 C     6.0000    0    12.011   12.031130   37.260864   14.311841
  35 H     1.0000    0     1.008   13.362253   38.391487   14.107939
  36 C     6.0000    0    12.011   11.858409   35.205409   12.749604
  37 H     1.0000    0     1.008   13.071614   34.960878   11.502196
  38 C     6.0000    0    12.011    9.884402   33.469695   13.004906

--------------------------------
INTERNAL COORDINATES (ANGSTROEM)
--------------------------------
 Fe     0   0   0     0.000000000000     0.00000000     0.00000000
 Cl     1   0   0     2.214216111855     0.00000000     0.00000000
 Cl     1   2   0     2.239083549133   110.63016449     0.00000000
 O      1   2   3     1.875357899176   103.48865938   260.13117220
 N      1   2   3     2.147127406560   103.57016307   172.71526952
 N      1   2   3     2.112824576249   100.33339551    96.71421232
 N      5   1   2     1.389744843487   115.26288148   270.40617344
 C      6   1   2     1.350245885015   123.38605053   281.07875050
 H      8   6   1     0.929900828046   118.42657107   348.08376214
 C      8   6   1     1.370318240410   123.07777062   168.07393872
 H     10   8   6     0.930468172481   121.06817180   182.75358783
 C     10   8   6     1.384982375339   117.77916533     2.72990878
 H     12  10   8     0.930276292292   119.63103434   179.46815004
 C     12  10   8     1.365740388947   120.62313374   359.53384325
 H     14  12  10     0.929325330549   120.85559509   178.86097285
 C      6   1   2     1.341614065221   117.89758249    92.31380476
 C      7   5   1     1.435541688702   122.14990602   167.01009706
 C     17   7   5     1.380704142820   119.62611064    80.41361644
 H     18  17   7     0.929727755851   120.63644676   359.30562491
 C     18  17   7     1.397024105018   118.72614558   179.35712462
 H     20  18  17     0.930305121990   120.07668380   178.94718854
 C     20  18  17     1.368567959584   119.76109428   358.90287822
 H     22  20  18     0.930179154787   119.47954139   180.95814922
 C     22  20  18     1.371216372423   120.98380460     0.89542882
 H     24  22  20     0.930283902903   119.91953783   180.27806729
 C     24  22  20     1.373510374915   120.14632233     0.31322587
 H     26  24  22     0.930432641302   120.38186543   178.80534620
 C      5   1   2     1.287322275112   125.53977720    82.79977484
 H     28   5   1     0.929087024987   117.45216688   188.82091417
 C     28   5   1     1.425452258057   125.05406875     8.77287156
 C     30  28   5     1.410549322073   118.30399902   183.04404507
 H     31  30  28     0.929863393193   119.19200412     0.63758604
 C     31  30  28     1.371356518196   121.64409970   180.59097354
 H     33  31  30     0.930171011159   120.63553988   180.64761248
 C     33  31  30     1.396421243751   118.81752766     0.61317450
 H     35  33  31     0.930475502096   119.51806102   180.10424723
 C     35  33  31     1.369261896059   121.05565889     0.11950528
 H     37  35  33     0.929860403502   119.54186453   179.97604137
 C      4   1   2     1.318249904229   134.37701976   286.55373098

---------------------------
INTERNAL COORDINATES (A.U.)
---------------------------
 Fe     0   0   0     0.000000000000     0.00000000     0.00000000
 Cl     1   0   0     4.184262052723     0.00000000     0.00000000
 Cl     1   2   0     4.231254698831   110.63016449     0.00000000
 O      1   2   3     3.543912832528   103.48865938   260.13117220
 N      1   2   3     4.057482773035   103.57016307   172.71526952
 N      1   2   3     3.992659818128   100.33339551    96.71421232
 N      5   1   2     2.626237150221   115.26288148   270.40617344
 C      6   1   2     2.551594936133   123.38605053   281.07875050
 H      8   6   1     1.757257896713   118.42657107   348.08376214
 C      8   6   1     2.589526190692   123.07777062   168.07393872
 H     10   8   6     1.758330022319   121.06817180   182.75358783
 C     10   8   6     2.617237389699   117.77916533     2.72990878
 H     12  10   8     1.757967421311   119.63103434   179.46815004
 C     12  10   8     2.580875305144   120.62313374   359.53384325
 H     14  12  10     1.756170364053   120.85559509   178.86097285
 C      6   1   2     2.535283160685   117.89758249    92.31380476
 C      7   5   1     2.712780645473   122.14990602   167.01009706
 C     17   7   5     2.609152701900   119.62611064    80.41361644
 H     18  17   7     1.756930837664   120.63644676   359.30562491
 C     18  17   7     2.639992960970   118.72614558   179.35712462
 H     20  18  17     1.758021901544   120.07668380   178.94718854
 C     20  18  17     2.586218639273   119.76109428   358.90287822
 H     22  20  18     1.757783858030   119.47954139   180.95814922
 C     22  20  18     2.591223414228   120.98380460     0.89542882
 H     24  22  20     1.757981803282   119.91953783   180.27806729
 C     24  22  20     2.595558450689   120.14632233     0.31322587
 H     26  24  22     1.758262878122   120.38186543   178.80534620
 C      5   1   2     2.432686546058   125.53977720    82.79977484
 H     28   5   1     1.755720031806   117.45216688   188.82091417
 C     28   5   1     2.693714384708   125.05406875     8.77287156
 C     30  28   5     2.665551917106   118.30399902   183.04404507
 H     31  30  28     1.757187155093   119.19200412     0.63758604
 C     31  30  28     2.591488251359   121.64409970   180.59097354
 H     33  31  30     1.757768468803   120.63553988   180.64761248
 C     33  31  30     2.638853718280   118.81752766     0.61317450
 H     35  33  31     1.758343873283   119.51806102   180.10424723
 C     35  33  31     2.587529989166   121.05565889     0.11950528
 H     37  35  33     1.757181505395   119.54186453   179.97604137
 C      4   1   2     2.491131295061   134.37701976   286.55373098

---------------------
BASIS SET INFORMATION
---------------------
There are 6 groups of distinct atoms

 Group   1 Type Fe  : 17s11p7d1f contracted to 6s4p4d1f pattern {842111/6311/4111/1}
 Group   2 Type Cl  : 14s9p3d1f contracted to 5s5p2d1f pattern {73211/51111/21/1}
 Group   3 Type O   : 11s6p2d1f contracted to 5s3p2d1f pattern {62111/411/11/1}
 Group   4 Type N   : 11s6p2d1f contracted to 5s3p2d1f pattern {62111/411/11/1}
 Group   5 Type C   : 11s6p2d1f contracted to 5s3p2d1f pattern {62111/411/11/1}
 Group   6 Type H   : 5s1p contracted to 3s1p pattern {311/1}

Atom   0Fe   basis set group =>   1
Atom   1Cl   basis set group =>   2
Atom   2Cl   basis set group =>   2
Atom   3O    basis set group =>   3
Atom   4N    basis set group =>   4
Atom   5N    basis set group =>   4
Atom   6N    basis set group =>   4
Atom   7C    basis set group =>   5
Atom   8H    basis set group =>   6
Atom   9C    basis set group =>   5
Atom  10H    basis set group =>   6
Atom  11C    basis set group =>   5
Atom  12H    basis set group =>   6
Atom  13C    basis set group =>   5
Atom  14H    basis set group =>   6
Atom  15C    basis set group =>   5
Atom  16C    basis set group =>   5
Atom  17C    basis set group =>   5
Atom  18H    basis set group =>   6
Atom  19C    basis set group =>   5
Atom  20H    basis set group =>   6
Atom  21C    basis set group =>   5
Atom  22H    basis set group =>   6
Atom  23C    basis set group =>   5
Atom  24H    basis set group =>   6
Atom  25C    basis set group =>   5
Atom  26H    basis set group =>   6
Atom  27C    basis set group =>   5
Atom  28H    basis set group =>   6
Atom  29C    basis set group =>   5
Atom  30C    basis set group =>   5
Atom  31H    basis set group =>   6
Atom  32C    basis set group =>   5
Atom  33H    basis set group =>   6
Atom  34C    basis set group =>   5
Atom  35H    basis set group =>   6
Atom  36C    basis set group =>   5
Atom  37H    basis set group =>   6
Atom  38C    basis set group =>   5
---------------------------------
AUXILIARY/J BASIS SET INFORMATION
---------------------------------
There are 6 groups of distinct atoms

 Group   1 Type Fe  : 19s5p5d3f3g contracted to 8s5p5d2f3g pattern {121111111/11111/11111/21/111}
 Group   2 Type Cl  : 14s5p5d2f1g contracted to 8s4p3d1f1g pattern {71111111/2111/311/2/1}
 Group   3 Type O   : 12s5p4d2f1g contracted to 6s4p3d1f1g pattern {711111/2111/211/2/1}
 Group   4 Type N   : 12s5p4d2f1g contracted to 6s4p3d1f1g pattern {711111/2111/211/2/1}
 Group   5 Type C   : 12s5p4d2f1g contracted to 6s4p3d1f1g pattern {711111/2111/211/2/1}
 Group   6 Type H   : 5s2p1d contracted to 3s1p1d pattern {311/2/1}

Atom   0Fe   basis set group =>   1
Atom   1Cl   basis set group =>   2
Atom   2Cl   basis set group =>   2
Atom   3O    basis set group =>   3
Atom   4N    basis set group =>   4
Atom   5N    basis set group =>   4
Atom   6N    basis set group =>   4
Atom   7C    basis set group =>   5
Atom   8H    basis set group =>   6
Atom   9C    basis set group =>   5
Atom  10H    basis set group =>   6
Atom  11C    basis set group =>   5
Atom  12H    basis set group =>   6
Atom  13C    basis set group =>   5
Atom  14H    basis set group =>   6
Atom  15C    basis set group =>   5
Atom  16C    basis set group =>   5
Atom  17C    basis set group =>   5
Atom  18H    basis set group =>   6
Atom  19C    basis set group =>   5
Atom  20H    basis set group =>   6
Atom  21C    basis set group =>   5
Atom  22H    basis set group =>   6
Atom  23C    basis set group =>   5
Atom  24H    basis set group =>   6
Atom  25C    basis set group =>   5
Atom  26H    basis set group =>   6
Atom  27C    basis set group =>   5
Atom  28H    basis set group =>   6
Atom  29C    basis set group =>   5
Atom  30C    basis set group =>   5
Atom  31H    basis set group =>   6
Atom  32C    basis set group =>   5
Atom  33H    basis set group =>   6
Atom  34C    basis set group =>   5
Atom  35H    basis set group =>   6
Atom  36C    basis set group =>   5
Atom  37H    basis set group =>   6
Atom  38C    basis set group =>   5


           ************************************************************
           *        Program running with 16 parallel MPI-processes    *
           *              working on a common directory               *
           ************************************************************
------------------------------------------------------------------------------
                             ORCA STARTUP CALCULATIONS
                           -- RI-GTO INTEGRALS CHOSEN --
------------------------------------------------------------------------------
------------------------------------------------------------------------------
                   ___                                                        
                  /   \      - P O W E R E D   B Y -                         
                 /     \                                                     
                 |  |  |   _    _      __       _____    __    __             
                 |  |  |  | |  | |    /  \     |  _  \  |  |  /  |          
                  \  \/   | |  | |   /    \    | | | |  |  | /  /          
                 / \  \   | |__| |  /  /\  \   | |_| |  |  |/  /          
                |  |  |   |  __  | /  /__\  \  |    /   |      \           
                |  |  |   | |  | | |   __   |  |    \   |  |\   \          
                \     /   | |  | | |  |  |  |  | |\  \  |  | \   \       
                 \___/    |_|  |_| |__|  |__|  |_| \__\ |__|  \__/        
                                                                              
                      - O R C A' S   B I G   F R I E N D -                    
                                      &                                       
                       - I N T E G R A L  F E E D E R -                       
                                                                              
 v1 FN, 2020, v2 2021, v3 2022-2024                                           
------------------------------------------------------------------------------


----------------------
SHARK INTEGRAL PACKAGE
----------------------

Number of atoms                             ...     39
Number of basis functions                   ...    885
Number of shells                            ...    339
Maximum angular momentum                    ...      3
Integral batch strategy                     ... SHARK/LIBINT Hybrid
RI-J (if used) integral strategy            ... SPLIT-RIJ (Revised 2003 algorithm where possible)
Printlevel                                  ...      1
Contraction scheme used                     ... SEGMENTED contraction
Prescreening option                         ... SCHWARTZ
   Thresh                                   ... 2.500e-11
   Tcut                                     ... 2.500e-12
   Tpresel                                  ... 2.500e-12 
Coulomb Range Separation                    ... NOT USED
Exchange Range Separation                   ... NOT USED
Multipole approximations                    ... NOT USED
Finite Nucleus Model                        ... NOT USED
CABS basis                                  ... NOT available
Auxiliary Coulomb fitting basis             ... AVAILABLE
   # of basis functions in Aux-J            ...   1423
   # of shells in Aux-J                     ...    457
   Maximum angular momentum in Aux-J        ...      4
Auxiliary J/K fitting basis                 ... NOT available
Auxiliary Correlation fitting basis         ... NOT available
Auxiliary 'external' fitting basis          ... NOT available

Checking pre-screening integrals            ... done (  0.0 sec) Dimension = 339
Check shell pair data                       ... done (  0.0 sec)
Shell pair information
Shell pair cut-off parameter TPreSel        ...   2.5e-12
Total number of shell pairs                 ...     57630
Shell pairs after pre-screening             ...     38995
Total number of primitive shell pairs       ...    189462
Primitive shell pairs kept                  ...     81959
          la=0 lb=0:   9141 shell pairs
          la=1 lb=0:  11094 shell pairs
          la=1 lb=1:   3387 shell pairs
          la=2 lb=0:   5765 shell pairs
          la=2 lb=1:   3543 shell pairs
          la=2 lb=2:    963 shell pairs
          la=3 lb=0:   2522 shell pairs
          la=3 lb=1:   1576 shell pairs
          la=3 lb=2:    811 shell pairs
          la=3 lb=3:    193 shell pairs

Calculating one electron integrals          ... done (  0.0 sec)
done (  0.2 sec)
Calculating Nuclear repulsion               ... done (  0.0 sec) ENN=   2988.362153653824 Eh

Diagonalization of the overlap matrix:
Smallest eigenvalue                        ... 6.087e-06
Time for diagonalization                   ...    0.133 sec
Threshold for overlap eigenvalues          ... 1.000e-07
Number of eigenvalues below threshold      ... 0
Time for construction of square roots      ...    0.097 sec
Total time needed                          ...    0.254 sec

-------------------
DFT GRID GENERATION
-------------------

General Integration Accuracy     IntAcc      ... 4.959
Radial Grid Type                 RadialGrid  ... OptM3 with GC (2021)
Angular Grid (max. ang.)         AngularGrid ... 6 (Lebedev-590)
Angular grid pruning method      GridPruning ... 4 (adaptive)
Weight generation scheme         WeightScheme... mBecke (2022)
Basis function cutoff            BFCut       ... 1.0000e-11
Integration weight cutoff        WCut        ... 1.0000e-14
Partially contracted basis set               ... off
Rotationally invariant grid construction     ... off
Angular grids for H and He will be reduced by one unit
Core-polarized basis detected: some atoms will have their core
                               angular grid increased.

Total number of grid points                  ...   490077
Total number of batches                      ...     7678
Average number of points per batch           ...       63
Average number of grid points per atom       ...    12566

--------------------
COSX GRID GENERATION
--------------------

GRIDX 1
-------
General Integration Accuracy     IntAcc      ... 4.020
Radial Grid Type                 RadialGrid  ... OptM3 with GC (2021)
Angular Grid (max. ang.)         AngularGrid ... 2 (Lebedev-110)
Angular grid pruning method      GridPruning ... 4 (adaptive)
Weight generation scheme         WeightScheme... mBecke (2022)
Basis function cutoff            BFCut       ... 1.0000e-11
Integration weight cutoff        WCut        ... 1.0000e-14
Partially contracted basis set               ... on
Rotationally invariant grid construction     ... off
Angular grids for H and He will be reduced by one unit
Core-polarized basis detected: some atoms will have their core
                               angular grid increased.

Total number of grid points                  ...    58271
Total number of batches                      ...      477
Average number of points per batch           ...      122
Average number of grid points per atom       ...     1494
UseSFitting                                  ... on

GRIDX 2
-------
General Integration Accuracy     IntAcc      ... 4.338
Radial Grid Type                 RadialGrid  ... OptM3 with GC (2021)
Angular Grid (max. ang.)         AngularGrid ... 3 (Lebedev-194)
Angular grid pruning method      GridPruning ... 4 (adaptive)
Weight generation scheme         WeightScheme... mBecke (2022)
Basis function cutoff            BFCut       ... 1.0000e-11
Integration weight cutoff        WCut        ... 1.0000e-14
Partially contracted basis set               ... on
Rotationally invariant grid construction     ... off
Angular grids for H and He will be reduced by one unit
Core-polarized basis detected: some atoms will have their core
                               angular grid increased.

Total number of grid points                  ...   122178
Total number of batches                      ...      972
Average number of points per batch           ...      125
Average number of grid points per atom       ...     3133
UseSFitting                                  ... on

GRIDX 3
-------
General Integration Accuracy     IntAcc      ... 4.871
Radial Grid Type                 RadialGrid  ... OptM3 with GC (2021)
Angular Grid (max. ang.)         AngularGrid ... 4 (Lebedev-302)
Angular grid pruning method      GridPruning ... 4 (adaptive)
Weight generation scheme         WeightScheme... mBecke (2022)
Basis function cutoff            BFCut       ... 1.0000e-11
Integration weight cutoff        WCut        ... 1.0000e-14
Partially contracted basis set               ... on
Rotationally invariant grid construction     ... off
Angular grids for H and He will be reduced by one unit
Core-polarized basis detected: some atoms will have their core
                               angular grid increased.

Total number of grid points                  ...   225258
Total number of batches                      ...     1780
Average number of points per batch           ...      126
Average number of grid points per atom       ...     5776
UseSFitting                                  ... on
Initializing property integral containers    ... done (  0.0 sec)

SHARK setup successfully completed in   9.0 seconds

Maximum memory used throughout the entire STARTUP-calculation: 151.2 MB


           ************************************************************
           *        Program running with 16 parallel MPI-processes    *
           *              working on a common directory               *
           ************************************************************
-------------------------------------------------------------------------------
                                 ORCA GUESS
                   Start orbitals & Density for SCF / CASSCF
-------------------------------------------------------------------------------

------------
SCF SETTINGS
------------
Hamiltonian:
 Density Functional     Method          .... DFT(GTOs)
 Exchange Functional    Exchange        .... PBE
   PBE kappa parameter   XKappa         ....  0.804000
   PBE mue parameter    XMuePBE         ....  0.219520
 Correlation Functional Correlation     .... PBE
   PBE beta parameter  CBetaPBE         ....  0.066725
 LDA part of GGA corr.  LDAOpt          .... PW91-LDA
 Gradients option       PostSCFGGA      .... off
 Hybrid DFT is turned on
   Fraction HF Exchange ScalHFX         ....  0.250000
   Scaling of DF-GGA-X  ScalDFX         ....  0.750000
   Scaling of DF-GGA-C  ScalDFC         ....  1.000000
   Scaling of DF-LDA-C  ScalLDAC        ....  1.000000
   Perturbative correction              ....  0.000000
   NL short-range parameter             ....  6.900000
 RI-approximation to the Coulomb term is turned on
   Number of AuxJ basis functions       .... 1423
   RIJ-COSX (HFX calculated with COS-X)).... on


General Settings:
 Integral files         IntName         .... WUQBAN-S6
 Hartree-Fock type      HFTyp           .... UHF
 Total Charge           Charge          ....    0
 Multiplicity           Mult            ....    6
 Number of Electrons    NEL             ....  211
 Basis Dimension        Dim             ....  885
 Nuclear Repulsion      ENuc            ....   2988.3621536538 Eh

Convergence Acceleration:
 AO-DIIS                CNVDIIS         .... on
   Start iteration      DIISMaxIt       ....    12
   Startup error        DIISStart       ....  0.200000
   # of expansion vecs  DIISMaxEq       ....     5
   Bias factor          DIISBfac        ....   1.050
   Max. coefficient     DIISMaxC        ....  10.000
 MO-DIIS                CNVKDIIS        .... off
 Trust-Rad. Augm. Hess. CNVTRAH         .... auto
   Auto Start mean grad. ratio tolernc. ....  1.125000
   Auto Start start iteration           ....    50
   Auto Start num. interpolation iter.  ....    10
   Max. Number of Micro iterations      ....    24
   Max. Number of Macro iterations      .... Maxiter - #DIIS iter
   Number of Davidson start vectors     ....     2
   Converg. threshold    (grad. norm)   ....   1.000e-05
   Grad. Scal. Fac. for Micro threshold ....   0.100
   Minimum threshold for Micro iter.    ....   1.000e-02
   NR start threshold (gradient norm)   ....   1.000e-04
   Initial trust radius                 ....   0.400
   Minimum AH scaling param. (alpha)    ....   1.000
   Maximum AH scaling param. (alpha)    .... 1000.000
   Quad. conv. algorithm                .... NR
   White noise on init. David. guess    .... on
   Maximum white noise                  ....   0.010
   Pseudo random numbers                .... off
   Inactive MOs                         .... canonical
   Orbital update algorithm             .... Taylor
   Preconditioner                       .... Diag
   Full preconditioner red. dimension   ....   250
 SOSCF                  CNVSOSCF        .... on
   Start iteration      SOSCFMaxIt      ....   150
   Startup grad/error   SOSCFStart      ....  0.003300
   Hessian update       SOSCFHessUp     .... L-BFGS
 Level Shifting         CNVShift        .... on
   Level shift para.    LevelShift      ....    0.2500
   Turn off err/grad.   ShiftErr        ....    0.0010
 Zerner damping         CNVZerner       .... off
 Static damping         CNVDamp         .... on
   Fraction old density DampFac         ....    0.7000
   Max. Damping (<1)    DampMax         ....    0.9800
   Min. Damping (>=0)   DampMin         ....    0.0000
   Turn off err/grad.   DampErr         ....    0.1000

SCF Procedure:
 Maximum # iterations   MaxIter         ....   125
 SCF integral mode      SCFMode         .... Direct
   Integral package                     .... SHARK and LIBINT hybrid scheme
 Reset frequency        DirectResetFreq ....    20
 Integral Threshold     Thresh          ....  2.500e-11 Eh
 Primitive CutOff       TCut            ....  2.500e-12 Eh

Convergence Tolerance:
 Convergence Check Mode ConvCheckMode   .... Total+1el-Energy
 Convergence forced     ConvForced      .... 0
 Energy Change          TolE            ....  1.000e-08 Eh
 1-El. energy change                    ....  1.000e-05 Eh
 Orbital Gradient       TolG            ....  1.000e-05
 Orbital Rotation angle TolX            ....  1.000e-05
 DIIS Error             TolErr          ....  5.000e-07

------------------------------
INITIAL GUESS: MODEL POTENTIAL
------------------------------
Loading Hartree-Fock densities                     ... done
Calculating cut-offs                               ... done
Initializing the effective Hamiltonian             ... done
Setting up the integral package (SHARK)            ... done
done (   0.3 sec)
Making the grid                                    ... done (   0.3 sec)
Mapping shells                                     ... done
Starting the XC term evaluation                    ... done (   0.2 sec)
  promolecular density results
     # of electrons  =    211.023526392
     EX              =   -233.435637283
     EC              =     -7.642470112
     EX+EC           =   -241.078107395
Transforming the Hamiltonian                       ... done (   0.1 sec)
done (   0.2 sec)
Back transforming the eigenvectors                 ... done (   0.1 sec)
done
                      ------------------
                      INITIAL GUESS DONE (   1.3 sec)
                      ------------------
             **** ENERGY FILE WAS UPDATED (WUQBAN-S6.en.tmp) ****
Finished Guess after   1.8 sec
Maximum memory used throughout the entire GUESS-calculation: 75.8 MB


           ************************************************************
           *        Program running with 16 parallel MPI-processes    *
           *              working on a common directory               *
           ************************************************************

-------------------------------------------------------------------------------------------
                                      ORCA LEAN-SCF
                              memory conserving SCF solver
-------------------------------------------------------------------------------------------

----------------------------------------D-I-I-S--------------------------------------------
Iteration    Energy (Eh)           Delta-E    RMSDP     MaxDP     DIISErr   Damp  Time(sec)
-------------------------------------------------------------------------------------------
               ***  Starting incremental Fock matrix formation  ***
    1    -3115.7274431689197627     0.00e+00  8.00e-04  1.03e-01  2.19e-01  0.700  19.0
Warning: op=0 Small HOMO/LUMO gap (  -0.074) - skipping pre-diagonalization
         Will do a full diagonalization
    2    -3115.9552207929450560    -2.28e-01  6.39e-04  5.97e-02  9.66e-02  0.700  12.8
                               ***Turning on AO-DIIS***
    3    -3116.1380321718920641    -1.83e-01  2.82e-04  2.73e-02  5.24e-02  0.700  10.4
    4    -3116.2353247015030320    -9.73e-02  7.22e-04  1.13e-01  8.06e-02  0.000   9.3
    5    -3116.5075392105113679    -2.72e-01  3.09e-04  3.26e-02  6.95e-02  0.000  10.2
    6    -3116.5380386014808209    -3.05e-02  1.96e-04  2.07e-02  2.82e-02  0.000   9.2
                              *** Initializing SOSCF ***
---------------------------------------S-O-S-C-F--------------------------------------
Iteration    Energy (Eh)           Delta-E    RMSDP     MaxDP     MaxGrad    Time(sec)
--------------------------------------------------------------------------------------
    7    -3116.5449689538359053    -6.93e-03  5.70e-05  4.74e-03  2.32e-03     9.7
               *** Restarting incremental Fock matrix formation ***
    8    -3116.5459661422760291    -9.97e-04  6.56e-05  3.63e-03  5.12e-03    19.1
    9    -3116.5465093483294368    -5.43e-04  6.86e-05  5.76e-03  1.78e-03    14.5
   10    -3116.5461455150630172     3.64e-04  5.11e-05  5.59e-03  4.26e-03    14.3
   11    -3116.5466112009285098    -4.66e-04  2.74e-05  2.00e-03  6.23e-04    13.8
   12    -3116.5465152037800181     9.60e-05  1.82e-05  1.01e-03  1.48e-03    13.3
   13    -3116.5466456355366063    -1.30e-04  5.92e-06  3.64e-04  2.05e-04    12.8
   14    -3116.5466427803789884     2.86e-06  3.78e-06  1.98e-04  3.37e-04    10.9
   15    -3116.5466485660786020    -5.79e-06  2.58e-06  2.14e-04  4.66e-05    10.3
   16    -3116.5466486240152335    -5.79e-08  2.54e-06  2.71e-04  5.26e-05     9.4
   17    -3116.5466490425901611    -4.19e-07  3.06e-06  2.25e-04  2.18e-05     8.5
   18    -3116.5466491276479246    -8.51e-08  1.73e-06  1.60e-04  3.21e-05     9.1
   19    -3116.5466491349257012    -7.28e-09  1.88e-06  1.48e-04  1.44e-05     8.5
                 **** Energy Check signals convergence ****

               *****************************************************
               *                     SUCCESS                       *
               *           SCF CONVERGED AFTER  19 CYCLES          *
               *****************************************************

 done (   24.576 sec)
Old exchange energy                            :    -59.245014563 Eh
New exchange energy                            :    -59.245002129 Eh
Exchange energy change after final integration :      0.000012434 Eh
Total energy after final integration           :  -3116.546636701 Eh
             **** ENERGY FILE WAS UPDATED (WUQBAN-S6.en.tmp) ****

----------------
TOTAL SCF ENERGY
----------------

Total Energy       :      -3116.54663670096943 Eh          -84805.54542 eV

Components:
Nuclear Repulsion  :       2988.36215365382441 Eh           81317.46830 eV
Electronic Energy  :      -6104.90880278875011 Eh         -166123.01405 eV
One Electron Energy:     -10232.19946150510077 Eh         -278432.30257 eV
Two Electron Energy:       4127.29065871635066 Eh          112309.28852 eV

Virial components:
Potential Energy   :      -6230.44185371625463 Eh         -169538.94203 eV
Kinetic Energy     :       3113.89521701528474 Eh           84733.39662 eV
Virial Ratio       :          2.00085148005983

DFT components:
N(Alpha)           :      107.999987239914 electrons
N(Beta)            :      102.999987719570 electrons
N(Total)           :      210.999974959483 electrons
E(X)               :     -177.199739150688 Eh       
E(C)               :       -7.610388701232 Eh       
E(XC)              :     -184.810127851920 Eh       

---------------
SCF CONVERGENCE
---------------

  Last Energy change         ...    7.2778e-09  Tolerance :   1.0000e-08
  Last MAX-Density change    ...    1.4760e-04  Tolerance :   1.0000e-07
  Last RMS-Density change    ...    1.8826e-06  Tolerance :   5.0000e-09
  Last DIIS Error            ...    2.3154e-03  Tolerance :   5.0000e-07
  Last Orbital Gradient      ...    1.4440e-05  Tolerance :   1.0000e-05
  Last Orbital Rotation      ...    3.3848e-05  Tolerance :   1.0000e-05


----------------------
UHF SPIN CONTAMINATION
----------------------

Warning: in a DFT calculation there is little theoretical justification to 
         calculate <S**2> as in Hartree-Fock theory. We will do it anyways
         but you should keep in mind that the values have only limited relevance

Expectation value of <S**2>     :     8.763945
Ideal value S*(S+1) for S=2.5   :     8.750000
Deviation                       :     0.013945

----------------
ORBITAL ENERGIES
----------------
                 SPIN UP ORBITALS
  NO   OCC          E(Eh)            E(eV) 
   0   1.0000    -256.460137     -6978.6351 
   1   1.0000    -101.636763     -2765.6769 
   2   1.0000    -101.626383     -2765.3945 
   3   1.0000     -30.282995      -824.0422 
   4   1.0000     -26.101380      -710.2546 
   5   1.0000     -26.101012      -710.2446 
   6   1.0000     -26.099723      -710.2096 
   7   1.0000     -19.196572      -522.3653 
   8   1.0000     -14.487682      -394.2299 
   9   1.0000     -14.468163      -393.6987 
  10   1.0000     -14.434728      -392.7889 
  11   1.0000     -10.340232      -281.3720 
  12   1.0000     -10.303870      -280.3825 
  13   1.0000     -10.287524      -279.9378 
  14   1.0000     -10.281899      -279.7847 
  15   1.0000     -10.271488      -279.5014 
  16   1.0000     -10.251986      -278.9707 
  17   1.0000     -10.251443      -278.9559 
  18   1.0000     -10.247858      -278.8584 
  19   1.0000     -10.246122      -278.8112 
  20   1.0000     -10.243187      -278.7313 
  21   1.0000     -10.243097      -278.7288 
  22   1.0000     -10.241211      -278.6775 
  23   1.0000     -10.239909      -278.6421 
  24   1.0000     -10.229685      -278.3639 
  25   1.0000     -10.220617      -278.1171 
  26   1.0000     -10.213864      -277.9334 
  27   1.0000     -10.203881      -277.6617 
  28   1.0000     -10.199705      -277.5481 
  29   1.0000      -9.463336      -257.5105 
  30   1.0000      -9.453072      -257.2312 
  31   1.0000      -7.194362      -195.7686 
  32   1.0000      -7.191690      -195.6958 
  33   1.0000      -7.191281      -195.6847 
  34   1.0000      -7.184076      -195.4886 
  35   1.0000      -7.181335      -195.4141 
  36   1.0000      -7.180959      -195.4038 
  37   1.0000      -3.707134      -100.8762 
  38   1.0000      -2.469721       -67.2045 
  39   1.0000      -2.467980       -67.1571 
  40   1.0000      -2.466426       -67.1149 
  41   1.0000      -1.104671       -30.0596 
  42   1.0000      -1.046687       -28.4818 
  43   1.0000      -1.015168       -27.6241 
  44   1.0000      -0.950345       -25.8602 
  45   1.0000      -0.919629       -25.0244 
  46   1.0000      -0.886194       -24.1146 
  47   1.0000      -0.874699       -23.8018 
  48   1.0000      -0.837328       -22.7849 
  49   1.0000      -0.829987       -22.5851 
  50   1.0000      -0.820069       -22.3152 
  51   1.0000      -0.791352       -21.5338 
  52   1.0000      -0.776658       -21.1339 
  53   1.0000      -0.770188       -20.9579 
  54   1.0000      -0.765269       -20.8240 
  55   1.0000      -0.728397       -19.8207 
  56   1.0000      -0.707431       -19.2502 
  57   1.0000      -0.699059       -19.0224 
  58   1.0000      -0.695155       -18.9161 
  59   1.0000      -0.662301       -18.0221 
  60   1.0000      -0.658415       -17.9164 
  61   1.0000      -0.634738       -17.2721 
  62   1.0000      -0.618966       -16.8429 
  63   1.0000      -0.605884       -16.4869 
  64   1.0000      -0.588001       -16.0003 
  65   1.0000      -0.574541       -15.6341 
  66   1.0000      -0.560778       -15.2596 
  67   1.0000      -0.540541       -14.7089 
  68   1.0000      -0.537602       -14.6289 
  69   1.0000      -0.534449       -14.5431 
  70   1.0000      -0.518208       -14.1011 
  71   1.0000      -0.512396       -13.9430 
  72   1.0000      -0.500109       -13.6087 
  73   1.0000      -0.497646       -13.5416 
  74   1.0000      -0.491638       -13.3781 
  75   1.0000      -0.489029       -13.3072 
  76   1.0000      -0.482863       -13.1394 
  77   1.0000      -0.477155       -12.9840 
  78   1.0000      -0.469622       -12.7791 
  79   1.0000      -0.464355       -12.6357 
  80   1.0000      -0.461701       -12.5635 
  81   1.0000      -0.457296       -12.4437 
  82   1.0000      -0.445392       -12.1197 
  83   1.0000      -0.439440       -11.9578 
  84   1.0000      -0.434234       -11.8161 
  85   1.0000      -0.429649       -11.6914 
  86   1.0000      -0.424307       -11.5460 
  87   1.0000      -0.421467       -11.4687 
  88   1.0000      -0.408851       -11.1254 
  89   1.0000      -0.401746       -10.9321 
  90   1.0000      -0.394350       -10.7308 
  91   1.0000      -0.385004       -10.4765 
  92   1.0000      -0.358593        -9.7578 
  93   1.0000      -0.352175        -9.5832 
  94   1.0000      -0.347827        -9.4648 
  95   1.0000      -0.337327        -9.1791 
  96   1.0000      -0.314015        -8.5448 
  97   1.0000      -0.309292        -8.4163 
  98   1.0000      -0.305974        -8.3260 
  99   1.0000      -0.295431        -8.0391 
 100   1.0000      -0.288445        -7.8490 
 101   1.0000      -0.284159        -7.7324 
 102   1.0000      -0.281921        -7.6714 
 103   1.0000      -0.274873        -7.4797 
 104   1.0000      -0.268718        -7.3122 
 105   1.0000      -0.263121        -7.1599 
 106   1.0000      -0.249751        -6.7961 
 107   1.0000      -0.222450        -6.0532 
 108   0.0000      -0.075352        -2.0504 
 109   0.0000      -0.057961        -1.5772 
 110   0.0000      -0.052203        -1.4205 
 111   0.0000      -0.043309        -1.1785 
 112   0.0000      -0.018614        -0.5065 
 113   0.0000       0.002031         0.0553 
 114   0.0000       0.034379         0.9355 
 115   0.0000       0.040671         1.1067 
 116   0.0000       0.059600         1.6218 
 117   0.0000       0.064757         1.7621 
 118   0.0000       0.070037         1.9058 

                 SPIN DOWN ORBITALS
  NO   OCC          E(Eh)            E(eV) 
   0   1.0000    -256.458536     -6978.5915 
   1   1.0000    -101.634582     -2765.6176 
   2   1.0000    -101.624452     -2765.3419 
   3   1.0000     -30.187998      -821.4572 
   4   1.0000     -26.021785      -708.0888 
   5   1.0000     -26.020876      -708.0640 
   6   1.0000     -26.019574      -708.0286 
   7   1.0000     -19.189899      -522.1837 
   8   1.0000     -14.487553      -394.2264 
   9   1.0000     -14.465508      -393.6265 
  10   1.0000     -14.432384      -392.7251 
  11   1.0000     -10.340219      -281.3717 
  12   1.0000     -10.303820      -280.3812 
  13   1.0000     -10.287641      -279.9410 
  14   1.0000     -10.281881      -279.7842 
  15   1.0000     -10.271501      -279.5018 
  16   1.0000     -10.251977      -278.9705 
  17   1.0000     -10.251435      -278.9557 
  18   1.0000     -10.247842      -278.8580 
  19   1.0000     -10.246128      -278.8113 
  20   1.0000     -10.243099      -278.7289 
  21   1.0000     -10.243099      -278.7289 
  22   1.0000     -10.241200      -278.6772 
  23   1.0000     -10.239396      -278.6281 
  24   1.0000     -10.229565      -278.3606 
  25   1.0000     -10.220800      -278.1221 
  26   1.0000     -10.213984      -277.9366 
  27   1.0000     -10.203533      -277.6522 
  28   1.0000     -10.199179      -277.5338 
  29   1.0000      -9.461368      -257.4569 
  30   1.0000      -9.451329      -257.1837 
  31   1.0000      -7.190710      -195.6692 
  32   1.0000      -7.188732      -195.6154 
  33   1.0000      -7.188658      -195.6133 
  34   1.0000      -7.180719      -195.3973 
  35   1.0000      -7.178811      -195.3454 
  36   1.0000      -7.178662      -195.3413 
  37   1.0000      -3.480989       -94.7225 
  38   1.0000      -2.227379       -60.6101 
  39   1.0000      -2.225002       -60.5454 
  40   1.0000      -2.222945       -60.4894 
  41   1.0000      -1.102774       -30.0080 
  42   1.0000      -1.033988       -28.1362 
  43   1.0000      -1.012211       -27.5437 
  44   1.0000      -0.949026       -25.8243 
  45   1.0000      -0.918822       -25.0024 
  46   1.0000      -0.884807       -24.0768 
  47   1.0000      -0.873793       -23.7771 
  48   1.0000      -0.836993       -22.7757 
  49   1.0000      -0.829954       -22.5842 
  50   1.0000      -0.819391       -22.2968 
  51   1.0000      -0.790718       -21.5165 
  52   1.0000      -0.768570       -20.9139 
  53   1.0000      -0.761860       -20.7313 
  54   1.0000      -0.752498       -20.4765 
  55   1.0000      -0.727142       -19.7865 
  56   1.0000      -0.706681       -19.2298 
  57   1.0000      -0.698554       -19.0086 
  58   1.0000      -0.694353       -18.8943 
  59   1.0000      -0.660648       -17.9771 
  60   1.0000      -0.657195       -17.8832 
  61   1.0000      -0.633168       -17.2294 
  62   1.0000      -0.617394       -16.8002 
  63   1.0000      -0.603102       -16.4112 
  64   1.0000      -0.586973       -15.9723 
  65   1.0000      -0.570085       -15.5128 
  66   1.0000      -0.557094       -15.1593 
  67   1.0000      -0.539209       -14.6726 
  68   1.0000      -0.533785       -14.5250 
  69   1.0000      -0.527180       -14.3453 
  70   1.0000      -0.515232       -14.0202 
  71   1.0000      -0.508726       -13.8431 
  72   1.0000      -0.499774       -13.5996 
  73   1.0000      -0.483739       -13.1632 
  74   1.0000      -0.482820       -13.1382 
  75   1.0000      -0.474935       -12.9236 
  76   1.0000      -0.469482       -12.7753 
  77   1.0000      -0.460616       -12.5340 
  78   1.0000      -0.446717       -12.1558 
  79   1.0000      -0.440464       -11.9856 
  80   1.0000      -0.430153       -11.7050 
  81   1.0000      -0.425132       -11.5684 
  82   1.0000      -0.423926       -11.5356 
  83   1.0000      -0.409622       -11.1464 
  84   1.0000      -0.401126       -10.9152 
  85   1.0000      -0.393942       -10.7197 
  86   1.0000      -0.389394       -10.5959 
  87   1.0000      -0.362977        -9.8771 
  88   1.0000      -0.354109        -9.6358 
  89   1.0000      -0.347180        -9.4473 
  90   1.0000      -0.340861        -9.2753 
  91   1.0000      -0.335951        -9.1417 
  92   1.0000      -0.322117        -8.7652 
  93   1.0000      -0.314070        -8.5463 
  94   1.0000      -0.309185        -8.4133 
  95   1.0000      -0.301348        -8.2001 
  96   1.0000      -0.297077        -8.0839 
  97   1.0000      -0.287311        -7.8181 
  98   1.0000      -0.283494        -7.7143 
  99   1.0000      -0.269686        -7.3385 
 100   1.0000      -0.268386        -7.3032 
 101   1.0000      -0.248316        -6.7570 
 102   1.0000      -0.226295        -6.1578 
 103   0.0000      -0.103737        -2.8228 
 104   0.0000      -0.088585        -2.4105 
 105   0.0000      -0.083642        -2.2760 
 106   0.0000      -0.078707        -2.1417 
 107   0.0000      -0.060166        -1.6372 
 108   0.0000      -0.058088        -1.5807 
 109   0.0000      -0.052859        -1.4384 
 110   0.0000      -0.044851        -1.2205 
 111   0.0000      -0.035875        -0.9762 
 112   0.0000      -0.015541        -0.4229 
 113   0.0000       0.006382         0.1737 
*Only the first 10 virtual orbitals were printed.

                    ********************************
                    * MULLIKEN POPULATION ANALYSIS *
                    ********************************

--------------------------------------------
MULLIKEN ATOMIC CHARGES AND SPIN POPULATIONS
--------------------------------------------
   0 Fe:    0.549866    4.165079
   1 Cl:   -0.407156    0.257193
   2 Cl:   -0.422896    0.231580
   3 O :   -0.441159    0.179671
   4 N :   -0.080818    0.045058
   5 N :   -0.124129    0.039174
   6 N :    0.162828    0.007023
   7 C :   -0.054251   -0.000326
   8 H :    0.142636    0.001932
   9 C :   -0.092076    0.005496
  10 H :    0.139718    0.000537
  11 C :   -0.113843    0.000445
  12 H :    0.134851   -0.000057
  13 C :   -0.203433    0.004150
  14 H :    0.161289    0.000582
  15 C :    0.264527    0.006343
  16 C :    0.006529    0.001839
  17 C :   -0.205880    0.000619
  18 H :    0.139723   -0.000011
  19 C :   -0.077625   -0.000284
  20 H :    0.133929    0.000023
  21 C :   -0.097248    0.000731
  22 H :    0.133106   -0.000044
  23 C :   -0.063914   -0.000238
  24 H :    0.134346    0.000028
  25 C :   -0.246442    0.000793
  26 H :    0.141522    0.000121
  27 C :   -0.006115    0.001767
  28 H :    0.163829    0.005646
  29 C :    0.029286    0.024134
  30 C :   -0.215109   -0.013358
  31 H :    0.112817    0.000964
  32 C :   -0.160853    0.023773
  33 H :    0.120271   -0.001425
  34 C :   -0.052220   -0.008821
  35 H :    0.126094    0.001014
  36 C :   -0.249636    0.028660
  37 H :    0.125098   -0.000646
  38 C :    0.392540   -0.009169
Sum of atomic charges         :    0.0000000
Sum of atomic spin populations:    5.0000000

-----------------------------------------------------
MULLIKEN REDUCED ORBITAL CHARGES AND SPIN POPULATIONS
-----------------------------------------------------
[...]
 66:   1026.20   0.001382    6.99  0.000420  (-0.012787  0.007959  0.013912)
 67:   1029.29   0.000715    3.62  0.000217  (-0.005095  0.010840  0.008569)
 68:   1056.68   0.001291    6.53  0.000381  (-0.009675  0.009235  0.014229)
 69:   1060.81   0.001434    7.25  0.000422  ( 0.004384  0.018397  0.008018)
 70:   1083.27   0.000122    0.62  0.000035  ( 0.005121  0.002857  0.000940)
 71:   1104.56   0.001354    6.84  0.000382  (-0.010592  0.010103 -0.012966)
 72:   1124.64   0.014962   75.61  0.004152  ( 0.031627  0.054087  0.015029)
 73:   1145.27   0.000083    0.42  0.000023  (-0.003144  0.000925  0.003451)
 74:   1155.64   0.001094    5.53  0.000296  ( 0.013849 -0.002939 -0.009753)
 75:   1173.63   0.003847   19.44  0.001023  (-0.027770 -0.010548  0.011853)
 76:   1181.28   0.002936   14.84  0.000776  ( 0.006882 -0.019068 -0.019099)
 77:   1183.36   0.000034    0.17  0.000009  (-0.001872  0.000924 -0.002156)
 78:   1194.39   0.000309    1.56  0.000081  ( 0.003755 -0.004694 -0.006675)
 79:   1254.42   0.016361   82.68  0.004070  ( 0.055300  0.020984 -0.023911)
 80:   1273.16   0.001942    9.81  0.000476  ( 0.012948  0.017082  0.004059)
 81:   1278.99   0.008380   42.35  0.002045  (-0.030999 -0.032916 -0.000613)
 82:   1333.98   0.000310    1.57  0.000073  ( 0.001092  0.008201  0.002045)
 83:   1343.34   0.020014  101.14  0.004649  ( 0.046219  0.049562  0.007530)
 84:   1350.68   0.003609   18.24  0.000834  (-0.008509  0.016939  0.021784)
 85:   1364.06   0.000678    3.43  0.000155  (-0.007685  0.005676 -0.007992)
 86:   1371.55   0.005089   25.72  0.001158  ( 0.001008  0.031799  0.012070)
 87:   1392.93   0.018152   91.73  0.004067  (-0.008202 -0.057585 -0.026141)
 88:   1407.00   0.004227   21.36  0.000937  ( 0.006211  0.028367  0.009707)
 89:   1448.29   0.003783   19.12  0.000815  ( 0.001580 -0.022805 -0.017106)
 90:   1485.25   0.010103   51.06  0.002123  (-0.018140 -0.034670 -0.024325)
 91:   1491.10   0.001146    5.79  0.000240  ( 0.006513 -0.005966  0.012721)
 92:   1497.26   0.013278   67.10  0.002768  ( 0.012903 -0.042090 -0.028801)
 93:   1512.91   0.009984   50.46  0.002059  (-0.038284  0.000034  0.024368)
 94:   1532.07   0.029756  150.37  0.006061  (-0.024022 -0.068874 -0.027206)
 95:   1546.53   0.068911  348.25  0.013905  (-0.005504  0.092693  0.072683)
 96:   1595.09   0.019109   96.57  0.003738  ( 0.040521  0.045787 -0.000094)
 97:   1634.58   0.023303  117.76  0.004449  (-0.022867  0.042923  0.045646)
 98:   1651.69   0.000580    2.93  0.000110  (-0.005476  0.004629 -0.007624)
 99:   1663.10   0.001293    6.53  0.000243  (-0.007381  0.006061  0.012304)
100:   1664.95   0.010051   50.79  0.001884  ( 0.024636  0.034774  0.008223)
101:   1671.65   0.011405   57.63  0.002129  ( 0.009844  0.043594  0.011477)
102:   1678.30   0.078091  394.64  0.014520  (-0.047352 -0.103426 -0.039763)
103:   3137.09   0.001003    5.07  0.000100  (-0.008318  0.001160  0.005408)
104:   3175.55   0.001315    6.64  0.000129  (-0.006334  0.005655  0.007557)
105:   3189.07   0.001408    7.11  0.000138  ( 0.009487  0.005984 -0.003453)
106:   3193.37   0.000040    0.20  0.000004  (-0.001334  0.000208  0.001430)
107:   3200.18   0.000411    2.08  0.000040  (-0.004685  0.003405 -0.002566)
108:   3201.75   0.001702    8.60  0.000166  (-0.009594 -0.008592  0.000008)
109:   3206.17   0.000873    4.41  0.000085  ( 0.004774 -0.001365 -0.007767)
110:   3213.75   0.000551    2.78  0.000053  (-0.003615  0.003431 -0.005350)
111:   3215.03   0.001659    8.39  0.000161  ( 0.002016 -0.009609 -0.008041)
112:   3216.01   0.001894    9.57  0.000184  (-0.011243 -0.007381  0.001706)
113:   3220.29   0.001231    6.22  0.000119  (-0.008872 -0.000628  0.006341)
114:   3220.40   0.001913    9.67  0.000185  ( 0.005527  0.011988  0.003331)
115:   3236.78   0.000718    3.63  0.000069  (-0.003668 -0.006757 -0.003186)
116:   3241.02   0.000226    1.14  0.000022  ( 0.004208  0.001155 -0.001635)

* The epsilon (eps) is given for a Dirac delta lineshape.
** The dipole moment derivative (T) already includes vibrational overlap.

The first frequency considered to be a vibration is 6
The total number of vibrations considered is 111


--------------------------
THERMOCHEMISTRY AT 298.15K
--------------------------

Temperature         ...   298.15 K
Pressure            ...     1.00 atm
Total Mass          ...   415.09 AMU
Quasi RRHO          ...     True
Cut-Off Frequency   ...     1.00 cm^-1

Throughout the following assumptions are being made:
  (1) The electronic state is orbitally nondegenerate
      but the spin degeneracy is treated
  (2) There are no thermally accessible electronically excited states
  (3) Hindered rotations indicated by low frequency modes are not
      treated as such but are treated as vibrations and this may
      cause some error
  (4) All equations used are the standard statistical mechanics
      equations for an ideal gas
  (5) All vibrations are strictly harmonic

freq.      13.70  E(vib)   ...       0.57 
freq.      27.37  E(vib)   ...       0.55 
freq.      38.63  E(vib)   ...       0.54 
freq.      43.39  E(vib)   ...       0.53 
freq.      59.32  E(vib)   ...       0.51 
freq.      65.85  E(vib)   ...       0.50 
freq.      85.57  E(vib)   ...       0.48 
freq.      88.81  E(vib)   ...       0.47 
freq.     122.26  E(vib)   ...       0.43 
freq.     133.01  E(vib)   ...       0.42 
freq.     145.21  E(vib)   ...       0.41 
freq.     152.72  E(vib)   ...       0.40 
freq.     181.14  E(vib)   ...       0.37 
freq.     206.10  E(vib)   ...       0.35 
freq.     217.40  E(vib)   ...       0.34 
freq.     229.97  E(vib)   ...       0.32 
freq.     237.62  E(vib)   ...       0.32 
freq.     289.50  E(vib)   ...       0.27 
freq.     311.51  E(vib)   ...       0.25 
freq.     322.96  E(vib)   ...       0.25 
freq.     339.12  E(vib)   ...       0.23 
freq.     350.25  E(vib)   ...       0.23 
freq.     376.98  E(vib)   ...       0.21 
freq.     386.88  E(vib)   ...       0.20 
freq.     422.18  E(vib)   ...       0.18 
freq.     427.25  E(vib)   ...       0.18 
freq.     437.89  E(vib)   ...       0.17 
freq.     445.19  E(vib)   ...       0.17 
freq.     484.95  E(vib)   ...       0.15 
freq.     499.81  E(vib)   ...       0.14 
freq.     536.58  E(vib)   ...       0.12 
freq.     540.03  E(vib)   ...       0.12 
freq.     559.48  E(vib)   ...       0.12 
freq.     587.43  E(vib)   ...       0.10 
freq.     622.84  E(vib)   ...       0.09 
freq.     629.90  E(vib)   ...       0.09 
freq.     653.91  E(vib)   ...       0.08 
freq.     660.43  E(vib)   ...       0.08 
freq.     684.63  E(vib)   ...       0.07 
freq.     722.50  E(vib)   ...       0.07 
freq.     761.60  E(vib)   ...       0.06 
freq.     764.16  E(vib)   ...       0.06 
freq.     771.95  E(vib)   ...       0.05 
freq.     773.82  E(vib)   ...       0.05 
freq.     785.59  E(vib)   ...       0.05 
freq.     809.29  E(vib)   ...       0.05 
freq.     852.63  E(vib)   ...       0.04 
freq.     867.93  E(vib)   ...       0.04 
freq.     875.91  E(vib)   ...       0.04 
freq.     881.62  E(vib)   ...       0.04 
freq.     928.88  E(vib)   ...       0.03 
freq.     938.49  E(vib)   ...       0.03 
freq.     953.63  E(vib)   ...       0.03 
freq.     980.38  E(vib)   ...       0.02 
freq.     986.36  E(vib)   ...       0.02 
freq.     995.25  E(vib)   ...       0.02 
freq.    1003.19  E(vib)   ...       0.02 
freq.    1006.86  E(vib)   ...       0.02 
freq.    1012.27  E(vib)   ...       0.02 
freq.    1014.32  E(vib)   ...       0.02 
freq.    1026.20  E(vib)   ...       0.02 
freq.    1029.29  E(vib)   ...       0.02 
freq.    1056.68  E(vib)   ...       0.02 
freq.    1060.81  E(vib)   ...       0.02 
freq.    1083.27  E(vib)   ...       0.02 
freq.    1104.56  E(vib)   ...       0.02 
freq.    1124.64  E(vib)   ...       0.01 
freq.    1145.27  E(vib)   ...       0.01 
freq.    1155.64  E(vib)   ...       0.01 
freq.    1173.63  E(vib)   ...       0.01 
freq.    1181.28  E(vib)   ...       0.01 
freq.    1183.36  E(vib)   ...       0.01 
freq.    1194.39  E(vib)   ...       0.01 
freq.    1254.42  E(vib)   ...       0.01 
freq.    1273.16  E(vib)   ...       0.01 
freq.    1278.99  E(vib)   ...       0.01 
freq.    1333.98  E(vib)   ...       0.01 
freq.    1343.34  E(vib)   ...       0.01 
freq.    1350.68  E(vib)   ...       0.01 
freq.    1364.06  E(vib)   ...       0.01 
freq.    1371.55  E(vib)   ...       0.01 
freq.    1392.93  E(vib)   ...       0.00 
freq.    1407.00  E(vib)   ...       0.00 
freq.    1448.29  E(vib)   ...       0.00 
freq.    1485.25  E(vib)   ...       0.00 
freq.    1491.10  E(vib)   ...       0.00 
freq.    1497.26  E(vib)   ...       0.00 
freq.    1512.91  E(vib)   ...       0.00 
freq.    1532.07  E(vib)   ...       0.00 
freq.    1546.53  E(vib)   ...       0.00 
freq.    1595.09  E(vib)   ...       0.00 
freq.    1634.58  E(vib)   ...       0.00 
freq.    1651.69  E(vib)   ...       0.00 
freq.    1663.10  E(vib)   ...       0.00 
freq.    1664.95  E(vib)   ...       0.00 
freq.    1671.65  E(vib)   ...       0.00 
freq.    1678.30  E(vib)   ...       0.00 
freq.    3137.09  E(vib)   ...       0.00 
freq.    3175.55  E(vib)   ...       0.00 
freq.    3189.07  E(vib)   ...       0.00 
freq.    3193.37  E(vib)   ...       0.00 
freq.    3200.18  E(vib)   ...       0.00 
freq.    3201.75  E(vib)   ...       0.00 
freq.    3206.17  E(vib)   ...       0.00 
freq.    3213.75  E(vib)   ...       0.00 
freq.    3215.03  E(vib)   ...       0.00 
freq.    3216.01  E(vib)   ...       0.00 
freq.    3220.29  E(vib)   ...       0.00 
freq.    3220.40  E(vib)   ...       0.00 
freq.    3236.78  E(vib)   ...       0.00 
freq.    3241.02  E(vib)   ...       0.00 

------------
INNER ENERGY
------------

The inner energy is: U= E(el) + E(ZPE) + E(vib) + E(rot) + E(trans)
    E(el)   - is the total energy from the electronic structure calculation
              = E(kin-el) + E(nuc-el) + E(el-el) + E(nuc-nuc)
    E(ZPE)  - the the zero temperature vibrational energy from the frequency calculation
    E(vib)  - the the finite temperature correction to E(ZPE) due to population
              of excited vibrational states
    E(rot)  - is the rotational thermal energy
    E(trans)- is the translational thermal energy

Summary of contributions to the inner energy U:
Electronic energy                ...  -3116.84441397 Eh
Zero point energy                ...      0.28735150 Eh     180.32 kcal/mol
Thermal vibrational correction   ...      0.01932434 Eh      12.13 kcal/mol
Thermal rotational correction    ...      0.00141627 Eh       0.89 kcal/mol
Thermal translational correction ...      0.00141627 Eh       0.89 kcal/mol
-----------------------------------------------------------------------
Total thermal energy                  -3116.53490559 Eh


Summary of corrections to the electronic energy:
(perhaps to be used in another calculation)
Total thermal correction                  0.02215688 Eh      13.90 kcal/mol
Non-thermal (ZPE) correction              0.28735150 Eh     180.32 kcal/mol
-----------------------------------------------------------------------
Total correction                          0.30950838 Eh     194.22 kcal/mol


--------
ENTHALPY
--------

The enthalpy is H = U + kB*T
                kB is Boltzmann's constant
Total thermal energy              ...  -3116.53490559 Eh 
Thermal Enthalpy correction       ...      0.00094421 Eh       0.59 kcal/mol
-----------------------------------------------------------------------
Total Enthalpy                    ...  -3116.53396138 Eh


Note: Only C1 symmetry has been detected, increase convergence thresholds 
      if your molecule has a higher symmetry. Symmetry factor of 1.0 is   
      used for the rotational entropy correction. 
 

Note: Rotational entropy computed according to Herzberg 
Infrared and Raman Spectra, Chapter V,1, Van Nostrand Reinhold, 1945 
Point Group:  C1, Symmetry Number:   1  
Rotational constants in cm-1:     0.006823     0.005925     0.003611 

Vibrational entropy computed according to the QRRHO of S. Grimme
Chem.Eur.J. 2012 18 9955 using a reference frequency of 100.0 cm-1


-------
ENTROPY
-------

The entropy contributions are T*S = T*(S(el)+S(vib)+S(rot)+S(trans))
     S(el)   - electronic entropy
     S(vib)  - vibrational entropy
     S(rot)  - rotational entropy
     S(trans)- translational entropy
The entropies will be listed as multiplied by the temperature to get
units of energy

Electronic entropy                ...      0.00169175 Eh      1.06 kcal/mol
Vibrational entropy               ...      0.03464659 Eh     21.74 kcal/mol
Rotational entropy                ...      0.01694147 Eh     10.63 kcal/mol
Translational entropy             ...      0.02088704 Eh     13.11 kcal/mol
-----------------------------------------------------------------------
Final entropy term                ...      0.07416685 Eh     46.54 kcal/mol

In case the symmetry of your molecule has not been determined correctly
or in case you have a reason to use a different symmetry number we print 
out the resulting rotational entropy values for sn=1,12:

 non-linear molecules -----------------------------------
|  sn= 1 | S(rot)=       0.01694147 Eh     10.63 kcal/mol|
|  sn= 2 | S(rot)=       0.01628702 Eh     10.22 kcal/mol|
|  sn= 3 | S(rot)=       0.01590418 Eh      9.98 kcal/mol|
|  sn= 4 | S(rot)=       0.01563256 Eh      9.81 kcal/mol|
|  sn= 5 | S(rot)=       0.01542187 Eh      9.68 kcal/mol|
|  sn= 6 | S(rot)=       0.01524973 Eh      9.57 kcal/mol|
|  sn= 7 | S(rot)=       0.01510418 Eh      9.48 kcal/mol|
|  sn= 8 | S(rot)=       0.01497810 Eh      9.40 kcal/mol|
|  sn= 9 | S(rot)=       0.01486690 Eh      9.33 kcal/mol|
|  sn=10 | S(rot)=       0.01476742 Eh      9.27 kcal/mol|
|  sn=11 | S(rot)=       0.01467743 Eh      9.21 kcal/mol|
|  sn=12 | S(rot)=       0.01459527 Eh      9.16 kcal/mol|
 linear molecules ---------------------------------------
|  Dinfh | S(rot)=       0.01063570 Eh      6.67 kcal/mol|
|  Cinfv | S(rot)=       0.01129016 Eh      7.08 kcal/mol|
 --------------------------------------------------------


-------------------
GIBBS FREE ENERGY
-------------------

The Gibbs free energy is G = H - T*S

Total enthalpy                    ...  -3116.53396138 Eh 
Total entropy correction          ...     -0.07416685 Eh    -46.54 kcal/mol
-----------------------------------------------------------------------
Final Gibbs free energy         ...  -3116.60812823 Eh

For completeness - the Gibbs free energy minus the electronic energy
G-E(el)                           ...      0.23628574 Eh    148.27 kcal/mol


Maximum memory used throughout the entire PROP-calculation: 980.8 MB

--------------------------------
SUGGESTED CITATIONS FOR THIS RUN
--------------------------------

Below you find a list of papers that are relevant to this ORCA run
We neither can nor want to force you to cite these papers, but we appreciate if you do
You receive ORCA, which is the product of decades of hard work by many enthusiastic individuals, for free
The only thing we kindly ask in return is that you cite our papers,
We deeply appreciate it, if you show your appreciation for ORCA by not just citing the generic ORCA reference.

Please note that relegating all ORCA citations to the supporting information does *not* help us.
SI sections are not indexed - citations you put there will not count into any citation statistics
But we need these citations in order to attract the funding resources that allow us to do what we are doing

Therefore, if you are a happy ORCA user, please consider citing a few of the papers listed below in the main body of your paper

In addition to the list printed below, the program has created the file WUQBAN-S6.bibtex that contains the list in bibtex format
You can import this file easily into all common literature databanks and citation aid programs


List of essential papers. We consider these as the minimum necessary citations

  1. Neese,F.
     Software update: the ORCA program system, version 5.0
     WIRES Comput. Molec. Sci., 2022 12(1)e1606
     doi.org/10.1002/wcms.1606

List of papers to cite with high priority. The work reported in these papers was absolutely
necessary for this run to complete.
Our perspective: the developers of density functionals and basis sets usually get cited in chemistry papers
Good! But without the algorithms to do something with them, the functionals or basis sets would not do anything.
Hence, in our opinion, the algorithm design and method developments papers are equally worthy of getting cited

  1. Neese,F.
     An improvement of the resolution of the identity approximation for the formation of the Coulomb matrix
     J. Comp. Chem., 2003 24(14)1740-1747
     doi.org/10.1002/jcc.10318
  2. Neese,F.; Wennmohs,F.; Hansen,A.; Becker,U.
     Efficient, approximate and parallel Hartree-Fock and hybrid DFT calculations. A 'chain-of-spheres' algorithm for the Hartree-Fock exchange
     Chem. Phys., 2009 356(1-3)98-109
     doi.org/10.1016/j.chemphys.2008.10.036
  3. Bykov,D.; Petrenko,T.; Izsak,R.; Kossmann,S.; Becker,U.; Valeev,E.; Neese,F.
     Efficient implementation of the analytic second derivatives of Hartree-Fock and hybrid DFT energies: a detailed analysis of different approximations
     Molec. Phys., 2015 113 1961-1977
     doi.org/10.1080/00268976.2015.1025114
  4. Helmich-Paris,B.; de Souza,B.; Neese,F.; Izsák,R.
     An improved chain of spheres for exchange algorithm
     J. Chem. Phys., 2021 155 104109
     doi.org/doi: 10.1063/5.0058766.
  5. Neese,F.
     The SHARK Integral Generation and Digestion System
     J. Comp. Chem., 2022  1-16
     doi.org/10.1002/jcc.26942

List of suggested additional citations. These are papers that are important in the 'surrounding' of 
of this run, or papers that preceded the highly important papers. If you like your results we are grateful for a citation.

  1. Izsak,R.; Neese,F.
     An overlap fitted chain of spheres exchange method
     J. Chem. Phys., 2011 135 144105
     doi.org/10.1063/1.3646921
  2. Izsak,R.; Hansen,A.; Neese,F.
     The resolution of identity and chain of spheres approximations for the LPNO-CCSD singles Fock term
     Molec. Phys., 2012 110 2413-2417
     doi.org/10.1080/00268976.2012.687466
  3. Neese,F.
     The ORCA program system
     WIRES Comput. Molec. Sci., 2012 2(1)73-78
     doi.org/10.1002/wcms.81
  4. Izsak,R.; Neese,F.; Klopper,W.
     Robust fitting techniques in the chain of spheres approximation to the Fock exchange: The role of the complementary space
     J. Chem. Phys., 2013 139 
     doi.org/10.1063/1.4819264
  5. Neese,F.
     Software update: the ORCA program system, version 4.0
     WIRES Comput. Molec. Sci., 2018 8(1)1-6
     doi.org/10.1002/wcms.1327
  6. Neese,F.; Wennmohs,F.; Becker,U.; Riplinger,C.
     The ORCA quantum chemistry program package
     J. Chem. Phys., 2020 152 Art. No. L224108
     doi.org/10.1063/5.0004608

List of optional additional citations

  1. Neese,F.
     Approximate second-order SCF convergence for spin unrestricted wavefunctions
     Chem. Phys. Lett., 2000 325(1-3)93-98
     doi.org/10.1016/s0009-2614(00)00662-x

Timings for individual modules:

Sum of individual times          ...    10887.917 sec (= 181.465 min)
Startup calculation              ...      283.502 sec (=   4.725 min)   2.6 %
SCF iterations                   ...     4378.707 sec (=  72.978 min)  40.2 %
Property integrals               ...     2102.980 sec (=  35.050 min)  19.3 %
SCF Response                     ...     2111.772 sec (=  35.196 min)  19.4 %
Property calculations            ...      727.045 sec (=  12.117 min)   6.7 %
SCF Gradient evaluation          ...     1283.259 sec (=  21.388 min)  11.8 %
Geometry relaxation              ...        0.653 sec (=   0.011 min)   0.0 %
                             ****ORCA TERMINATED NORMALLY****
TOTAL RUN TIME: 0 days 3 hours 2 minutes 30 seconds 991 msec
