
                                 *****************
                                 * O   R   C   A *
                                 *****************

                                            #,                                       
                                            ###                                      
                                            ####                                     
                                            #####                                    
                                            ######                                   
                                           ########,                                 
                                     ,,################,,,,,                         
                               ,,#################################,,                 
                          ,,##########################################,,             
                       ,#########################################, ''#####,          
                    ,#############################################,,   '####,        
                  ,##################################################,,,,####,       
                ,###########''''           ''''###############################       
              ,#####''   ,,,,##########,,,,          '''####'''          '####       
            ,##' ,,,,###########################,,,                        '##       
           ' ,,###''''                  '''############,,,                           
         ,,##''                                '''############,,,,        ,,,,,,###''
      ,#''                                            '''#######################'''  
     '                                                          ''''####''''         
             ,#######,   #######,   ,#######,      ##                                
            ,#'     '#,  ##    ##  ,#'     '#,    #''#        ,####,   ,####,        
            ##       ##  ##   ,#'  ##            #'  '#       #'       #'  '#        
            ##       ##  #######   ##           ,######,      #####,   #    #        
            '#,     ,#'  ##    ##  '#,     ,#' ,#      #,     #,   #   #,  ,#        
             '#######'   ##     ##  '#######'  #'      '#     '####' # '####'        



                #########################################################
                #                        -***-                          #
                #          Department of theory and spectroscopy        #
                #                                                       #
                #                      Frank Neese                      #
                #                                                       #
                #     Directorship, Architecture, Infrastructure        #
                #                    SHARK, DRIVERS                     #
                #        Core code/Algorithms in most modules           #
                #                                                       #
                #        Max Planck Institute fuer Kohlenforschung      #
                #                Kaiser Wilhelm Platz 1                 #
                #                 D-45470 Muelheim/Ruhr                 #
                #                      Germany                          #
                #                                                       #
                #                  All rights reserved                  #
                #                        -***-                          #
                #########################################################


                         Program Version 6.0.1  -  RELEASE   -


 With contributions from (in alphabetic order):
[Max-Planck-Institut fuer Kohlenforschung]                               
  Daniel Aravena         : Magnetic Suceptibility                        
  Michael Atanasov       : Ab Initio Ligand Field Theory (pilot matlab implementation)
  Alexander A. Auer      : GIAO ZORA, VPT2 properties, NMR spectrum      
  Ute Becker             : All parallelization in ORCA, NUMFREQ, NUMCALC 
  Giovanni Bistoni       : ED, misc. LED, open-shell LED, HFLD           
  Martin Brehm           : Molecular dynamics                            
  Dmytro Bykov           : pre 5.0 version of the SCF Hessian            
  Marcos Casanova-Páez   : Triplet and SCS-CIS(D). UHF-(DLPNO)-IP/EA/STEOM-CCSD. UHF-CVS-IP/STEOM-CCSD   
  Vijay G. Chilkuri      : MRCI spin determinant printing, contributions to CSF-ICE 
  Pauline Colinet        : FMM embedding                                 
  Dipayan Datta          : RHF DLPNO-CCSD density                        
  Achintya Kumar Dutta   : EOM-CC, STEOM-CC                              
  Nicolas Foglia         : Exact transition moments, OPA infrastructure, MCD improvements    
  Dmitry Ganyushin       : Spin-Orbit,Spin-Spin,Magnetic field MRCI      
  Miquel Garcia-Rates    : C-PCM and meta-GGA Hessian, CCSD/C-PCM, Gaussian charge scheme 
  Tiago L. C. Gouveia    : GS-ROHF, GS-ROCIS                             
  Yang Guo               : DLPNO-NEVPT2, F12-NEVPT2, CIM, IAO-localization        
  Andreas Hansen         : Spin unrestricted coupled pair/coupled cluster methods 
  Ingolf Harden          : AUTO-CI MPn and infrastructure                
  Benjamin Helmich-Paris : MC-RPA, TRAH-(SCF,CASSCF), AVAS, COSX integrals, SCF dyn. polar. 
  Lee Huntington         : MR-EOM, pCC                                   
  Robert Izsak           : Overlap fitted RIJCOSX, COSX-SCS-MP3, EOM     
  Riya Kayal             : Wick's Theorem for AUTO-CI, AUTO-CI UHF-CCSDT 
  Emily Kempfer          : AUTO-CI, RHF CISDT and CCSDT                  
  Christian Kollmar      : KDIIS, OOCD, Brueckner-CCSD(T), CCSD density, CASPT2, CASPT2-K, improved NEVPT2 
  Axel Koslowski         : Symmetry handling                             
  Simone Kossmann        : meta-GGA functionals, TD-DFT gradient, OOMP2, (MP2 Hessian; deprecated post 5.0) 
  Lucas Lang             : DCDCAS                                        
  Marvin Lechner         : AUTO-CI (C++ implementation), FIC-MRCC        
  Spencer Leger          : CASSCF response                               
  Dagmar Lenk            : GEPOL surface, SMD, ORCA-2-JSON               
  Dimitrios Liakos       : Extrapolation schemes; Compound Job, initial MDCI parallelization 
  Dimitrios Manganas     : Further ROCIS development; embedding schemes. LFT, Crystal Embedding 
  Dimitrios Pantazis     : SARC Basis sets                               
  Anastasios Papadopoulos: AUTO-CI, single reference methods and gradients 
  Taras Petrenko         : pre 6.0 DFT Hessian and TD-DFT gradient, (ASA, deprecated), ECA, 1-Electron XAS/XES, NRVS 
  Peter Pinski           : DLPNO-MP2, DLPNO-MP2 Gradient                 
  Christoph Reimann      : Effective Core Potentials                     
  Marius Retegan         : Local ZFS, SOC                                
  Christoph Riplinger    : Optimizer, TS searches, QM/MM, DLPNO-CCSD(T), (RO)-DLPNO pert. Triples 
  Michael Roemelt        : Original ROCIS implementation                 
  Masaaki Saitow         : Open-shell DLPNO-CCSD energy and density      
  Barbara Sandhoefer     : DKH picture change effects                    
  Kantharuban Sivalingam : CASSCF convergence/infrastructure, NEVPT2 and variants, FIC-MRCI 
  Bernardo de Souza      : ESD, SOC TD-DFT                               
  Georgi L. Stoychev     : AutoAux, RI-MP2 NMR, DLPNO-MP2 response, X2C  
  Van Anh Tran           : RI-MP2 g-tensors                              
  Willem Van den Heuvel  : Paramagnetic NMR                              
  Zikuan Wang            : NOTCH, Electric field optimization            
  Frank Wennmohs         : Technical directorship and infrastructure     
  Hang Xu                : AUTO-CI-Response properties                   
                                                                         
[FACCTs GmbH]                                                            
  Markus Bursch, Miquel Garcia-Rates, Christoph Riplinger, Bernardo de Souza, Georgi L. Stoychev 
                                                                 
  APM, Basis sets (HGBS, AHGBS, def-TZVP (Ac-Lr), def2-XVPD (La-Lu)), CI-OPT, improved COSX, DLPNO-Multilevel,           
  DOCKER, DRACO, updates on ESD, GOAT, IRC, LR-CPCM, MBIS, meta-GGA TD-DFT gradient, ML-optimized integration grids, 
  MM, NACMEs, nearIR, NEB, NEB-TS, NL-DFT gradient (VV10), 2- and 3-layer-ONIOM, interface openCOSMO-RS, QMMM,   
  Crystal-QMMM, SF, symmetry and pop. for TD-DFT, r2SCAN hybrids, SOLVATOR                                   
                                                                         
[Other institutions]                                                     
  V. Asgeirsson          : NEB                                           
  Christoph Bannwarth    : sTDA-DFT, sTD-DFT, PBEh-3c, B97-3c, D3        
  Sebastian Ehlert       : rSCAN, r2SCAN, r2SCAN-3c, D4, dhf basis sets  
  Marvin Friede          : D4 for Fr, Ra, Ac-Lr                          
  Lars Goerigk           : TD-DFT with DH, B97 family of functionals     
  Stefan Grimme          : VdW corrections, initial TS optimization, DFT functionals, gCP, sTDA/sTD-DF 
  Waldemar Hujo          : DFT-NL                                        
  H. Jonsson             : NEB                                           
  Holger Kruse           : gCP                                           
  Marcel Mueller         : wB97X-3c, vDZP basis set                      
  Hagen Neugebauer       : wr2SCAN                                       
  Tobias Risthaus        : range-separated hybrid DFT                    
  Lukas Wittmann         : regularized MP2, r2SCAN double-hybrids, wr2SCAN        
                                                                         
We gratefully acknowledge several colleagues who have allowed us to      
interface, adapt or use parts of their codes:                            
  Ed Valeev, F. Pavosevic, A. Kumar             : LibInt (2-el integral package), F12 methods 
  Garnet Chan, S. Sharma, J. Yang, R. Olivares  : DMRG                   
  Ulf Ekstrom                                   : XCFun DFT Library      
  Mihaly Kallay                                 : mrcc  (arbitrary order and MRCC methods)
  Frank Weinhold                                : gennbo (NPA and NBO analysis)           
  Simon Mueller                                 : openCOSMO-RS                            
  Christopher J. Cramer and Donald G. Truhlar   : smd solvation model                     
  S Lehtola, MJT Oliveira, MAL Marques          : LibXC Library                           
  Liviu Ungur et al                             : ANISO software                          


 Your calculation uses the libint2 library for the computation of 2-el integrals
 For citations please refer to: http://libint.valeyev.net

 Your ORCA version has been built with support for libXC version: 6.2.2
 For citations please refer to: https://libxc.gitlab.io

 This ORCA versions uses:
   CBLAS   interface :  Fast vector & matrix operations
   LAPACKE interface :  Fast linear algebra routines
   SCALAPACK package :  Parallel linear algebra routines
   Shared memory     :  Shared parallel matrices
   BLAS/LAPACK       :  OpenBLAS 0.3.27  USE64BITINT DYNAMIC_ARCH NO_AFFINITY Cooperlake SINGLE_THREADED
        Core in use  :  Cooperlake
   Copyright (c) 2011-2014, The OpenBLAS Project


NOTE: MaxCore=3600 MB was set to SCF,MP2,MDCI,CIPSI,MRCI and CIS
      => If you want to overwrite this, your respective input block should be placed after the MaxCore statement
Warning: RI is on but no J-basis has been assigned. Assigning Def2/J (nothing to worry about!)
================================================================================

----- Orbital basis set information -----
Your calculation utilizes the basis: def2-TZVP
   F. Weigend and R. Ahlrichs, Phys. Chem. Chem. Phys. 7, 3297 (2005).

----- AuxJ basis set information -----
Your calculation utilizes the auxiliary basis: def2/J
   F. Weigend, Phys. Chem. Chem. Phys. 8, 1057 (2006).

================================================================================
                                        WARNINGS
                       Please study these warnings very carefully!
================================================================================


WARNING: your system is open-shell and RHF/RKS was chosen
  ===> : WILL SWITCH to UHF/UKS


WARNING: Geometry Optimization
  ===> : Switching off AutoStart
         For restart on a previous wavefunction, please use MOREAD

================================================================================
                                       INPUT FILE
================================================================================
NAME = ZOVRIL-S6.inp
|  1> ! PBE0 def2-TZVP  Opt Freq DEFGRID3
|  2> 
|  3> %maxcore 3600
|  4> 
|  5> %pal
|  6>     nprocs 16
|  7> end
|  8> 
|  9> *xyz 0 6
| 10> Fe 17.5203 1.823 15.0594
| 11> O 17.736 0.0721 16.025
| 12> O 18.7613 0.8586 13.8264
| 13> C 18.723 -0.6131 15.6061
| 14> C 19.3389 -0.1652 14.3531
| 15> C 20.4776 -0.7923 13.7985
| 16> C 20.94 -1.8673 14.4968
| 17> C 20.3277 -2.3419 15.6819
| 18> C 19.2457 -1.7753 16.2764
| 19> C 18.6371 -2.2791 17.5733
| 20> C 17.1822 -2.6083 17.3299
| 21> C 18.712 -1.2018 18.6267
| 22> C 19.3188 -3.5181 18.0761
| 23> C 21.1191 -0.2629 12.5295
| 24> C 20.0956 -0.3164 11.3963
| 25> C 21.5998 1.1611 12.753
| 26> C 22.3418 -1.1029 12.1225
| 27> O 15.8937 1.7276 13.9461
| 28> O 16.1788 2.6968 16.2445
| 29> C 14.9945 2.5409 14.2933
| 30> C 15.1589 3.1249 15.622
| 31> C 14.2762 4.1138 16.1527
| 32> C 13.2307 4.4128 15.3188
| 33> C 13.0425 3.8718 14.0618
| 34> C 13.8905 2.9609 13.4713
| 35> C 14.5138 4.7641 17.4815
| 36> C 15.8919 5.3924 17.5094
| 37> C 14.4516 3.7415 18.5988
| 38> C 13.5268 5.8554 17.7967
| 39> C 13.7589 2.4594 12.0467
| 40> C 13.6493 0.9191 12.0427
| 41> C 14.9762 2.8783 11.2447
| 42> C 12.5398 3.0295 11.3484
| 43> O 17.9827 3.5053 14.0419
| 44> O 19.0337 2.5851 16.1527
| 45> C 18.9953 4.165 14.4768
| 46> C 19.5747 3.6461 15.7018
| 47> C 20.695 4.2929 16.3163
| 48> C 21.1538 5.39 15.6659
| 49> C 20.5744 5.8647 14.4648
| 50> C 19.5326 5.2911 13.8264
| 51> C 21.2781 3.7555 17.6092
| 52> C 20.2308 3.752 18.6906
| 53> C 22.446 4.6024 18.0761
| 54> C 21.788 2.3268 17.3937
| 55> C 18.9752 5.7821 12.4976
| 56> C 19.1214 4.7071 11.4601
| 57> C 17.5148 6.1544 12.6493
| 58> C 19.7209 7.0048 12.0028
| 59> H 21.7149 -2.3256 14.1656
| 60> H 20.7078 -3.1086 16.1168
| 61> H 16.7235 -1.8347 16.9907
| 62> H 17.1438 -3.3122 16.6795
| 63> H 16.76 -2.9015 18.1399
| 64> H 18.2642 -0.4095 18.3235
| 65> H 18.2953 -1.5147 19.4368
| 66> H 19.635 -1.0017 18.8023
| 67> H 19.2804 -4.222 17.4256
| 68> H 20.2363 -3.2971 18.2556
| 69> H 18.8966 -3.8101 18.8861
| 70> H 19.3279 0.2106 11.6237
| 71> H 20.4958 0.0349 10.5942
| 72> H 19.8287 -1.2262 11.2447
| 73> H 20.8577 1.7172 13.0004
| 74> H 22.2541 1.1704 13.4553
| 75> H 21.9945 1.4961 11.943
| 76> H 22.9888 -1.0808 12.8288
| 77> H 22.0658 -2.0092 11.9669
| 78> H 22.7329 -0.7481 11.3205
| 79> H 12.5892 5.0538 15.638
| 80> H 12.2694 4.1405 13.559
| 81> H 16.5315 4.7001 17.3219
| 82> H 15.9522 6.0729 16.8351
| 83> H 16.0783 5.7763 18.3713
| 84> H 13.578 3.3471 18.6307
| 85> H 15.1059 3.0574 18.4392
| 86> H 14.638 4.1731 19.4368
| 87> H 12.6459 5.4785 17.7967
| 88> H 13.7114 6.2393 18.6547
| 89> H 13.5835 6.5371 17.1224
| 90> H 14.4242 0.5468 12.4737
| 91> H 12.8615 0.6666 12.5295
| 92> H 13.5926 0.5864 11.1449
| 93> H 15.0255 3.8369 11.2407
| 94> H 15.7657 2.5176 11.6557
| 95> H 14.9122 2.5583 10.3429
| 96> H 12.5947 3.987 11.3205
| 97> H 12.4887 2.6863 10.4506
| 98> H 11.7558 2.7666 11.8352
| 99> H 21.8666 5.8868 16.0729
|100> H 20.9655 6.6395 14.0538
|101> H 19.4815 3.2249 18.4073
|102> H 20.5909 3.3843 19.5006
|103> H 19.9439 4.6548 18.8502
|104> H 22.1627 5.5052 18.2437
|105> H 22.8152 4.2313 18.8821
|106> H 23.1131 4.5989 17.3857
|107> H 21.0642 1.7637 17.1104
|108> H 22.4643 2.3466 16.7114
|109> H 22.1645 1.9789 18.2077
|110> H 20.048 4.4733 11.3604
|111> H 18.6243 3.9358 11.7395
|112> H 18.7796 5.0224 10.6222
|113> H 17.0195 5.3912 12.9525
|114> H 17.4381 6.8641 13.2917
|115> H 17.1621 6.4476 11.8033
|116> H 20.6494 6.7873 11.8911
|117> H 19.3553 7.2934 11.1609
|118> H 19.6332 7.7099 12.6493
|119> *
|120> 
|121>                          ****END OF INPUT****
================================================================================

                       *****************************
                       * Geometry Optimization Run *
                       *****************************

Geometry optimization settings:
Update method            Update   .... BFGS
Choice of coordinates    CoordSys .... (2022) Redundant Internals
Initial Hessian          InHess   .... Almloef's Model
Max. no of cycles        MaxIter  .... 327

Convergence Tolerances:
Energy Change            TolE     ....  5.0000e-06 Eh
Max. Gradient            TolMAXG  ....  3.0000e-04 Eh/bohr
RMS Gradient             TolRMSG  ....  1.0000e-04 Eh/bohr
Max. Displacement        TolMAXD  ....  4.0000e-03 bohr
RMS Displacement         TolRMSD  ....  2.0000e-03 bohr
Strict Convergence                .... False

------------------------------------------------------------------------------
                        ORCA OPTIMIZATION COORDINATE SETUP
------------------------------------------------------------------------------

The optimization will be done in redundant internal coordinates (2022)
Making redundant internal coordinates   ...  (2022 redundants) done
Evaluating the initial hessian          ...  (Almloef) done
Evaluating the coordinates              ...  done
Calculating the B-matrix                .... done
Calculating the G-matrix                .... done
Diagonalizing the G-matrix              .... done
Small eigenvalue found = 3.471e-03
Small eigenvalue found = 4.189e-03
Small eigenvalue found = 4.591e-03
Small eigenvalue found = 5.114e-03
Small eigenvalue found = 5.849e-03
Small eigenvalue found = 6.753e-03
Small eigenvalue found = 7.707e-03
Small eigenvalue found = 9.509e-03
Small eigenvalue found = 1.561e-02
Small eigenvalue found = 1.716e-02
Small eigenvalue found = 2.090e-02
Small eigenvalue found = 2.485e-02
Small eigenvalue found = 2.507e-02
Small eigenvalue found = 2.925e-02
The first mode is                       ....  425
The number of degrees of freedom        ....  321

    -----------------------------------------------------------------
                    Redundant Internal Coordinates


    -----------------------------------------------------------------
         Definition                    Initial Value    Approx d2E/dq
    -----------------------------------------------------------------
      1. B(O   1,Fe  0)                  2.0111         0.578176   
      2. B(O   2,Fe  0)                  1.9976         0.607576   
      3. B(C   3,Fe  0)                  2.7713         0.039549   
      4. B(C   3,O   1)                  1.2725         0.861805   
      5. B(C   4,O   2)                  1.2881         0.813675   
      6. B(C   4,Fe  0)                  2.7855         0.037532   
      7. B(C   4,C   3)                  1.4663         0.472117   
      8. B(C   5,C   4)                  1.4133         0.573500   
      9. B(C   6,C   5)                  1.3627         0.690604   
     10. B(C   7,C   6)                  1.4158         0.568203   
     11. B(C   8,C   7)                  1.3584         0.701762   
     12. B(C   8,C   3)                  1.4399         0.520204   
     13. B(C   9,C   8)                  1.5186         0.389546   
     14. B(C  10,C   9)                  1.5114         0.399983   
     15. B(C  11,C   9)                  1.5086         0.404147   
     16. B(C  12,C   9)                  1.5009         0.415753   
     17. B(C  13,C   5)                  1.5173         0.391441   
     18. B(C  14,C  13)                  1.5279         0.376432   
     19. B(C  15,C  13)                  1.5195         0.388304   
     20. B(C  16,C  13)                  1.5383         0.362409   
     21. B(O  17,Fe  0)                  1.9734         0.664048   
     22. B(O  18,Fe  0)                  1.9919         0.620482   
     23. B(C  19,O  17)                  1.2612         0.898267   
     24. B(C  19,Fe  0)                  2.7353         0.045133   
     25. B(C  20,C  19)                  1.4607         0.481954   
     26. B(C  20,O  18)                  1.2692         0.872046   
     27. B(C  20,Fe  0)                  2.7546         0.042051   
     28. B(C  21,C  20)                  1.4278         0.543711   
     29. B(C  22,C  21)                  1.3704         0.671565   
     30. B(C  23,C  22)                  1.3814         0.644951   
     31. B(C  24,C  19)                  1.4391         0.521751   
     32. B(C  24,C  23)                  1.3775         0.654133   
     33. B(C  25,C  21)                  1.4984         0.419636   
     34. B(C  26,C  25)                  1.5148         0.394990   
     35. B(C  27,C  25)                  1.5159         0.393442   
     36. B(C  28,C  25)                  1.5048         0.409794   
     37. B(C  29,C  24)                  1.5160         0.393267   
     38. B(C  30,C  29)                  1.5442         0.354587   
     39. B(C  31,C  29)                  1.5167         0.392223   
     40. B(C  32,C  29)                  1.5162         0.393012   
     41. B(O  33,Fe  0)                  2.0197         0.560181   
     42. B(O  34,Fe  0)                  2.0166         0.566731   
     43. B(C  35,O  33)                  1.2844         0.824789   
     44. B(C  36,C  35)                  1.4511         0.499246   
     45. B(C  36,O  34)                  1.2735         0.858618   
     46. B(C  36,Fe  0)                  2.8208         0.032969   
     47. B(C  37,C  36)                  1.4321         0.535183   
     48. B(C  38,C  37)                  1.3554         0.709445   
     49. B(C  39,C  38)                  1.4155         0.568891   
     50. B(C  40,C  39)                  1.3498         0.724268   
     51. B(C  40,C  35)                  1.4071         0.586845   
     52. B(C  41,C  37)                  1.5167         0.392273   
     53. B(C  42,C  41)                  1.5054         0.408885   
     54. B(C  43,C  41)                  1.5163         0.392829   
     55. B(C  44,C  41)                  1.5322         0.370574   
     56. B(C  45,C  40)                  1.5223         0.384252   
     57. B(C  46,C  45)                  1.5011         0.415365   
     58. B(C  47,C  45)                  1.5147         0.395139   
     59. B(C  48,C  45)                  1.5152         0.394420   
     60. B(H  49,C   6)                  0.9593         0.582092   
     61. B(H  50,C   7)                  0.9599         0.580711   
     62. B(H  51,C  10)                  0.9612         0.577968   
     63. B(H  52,C  10)                  0.9592         0.582351   
     64. B(H  53,C  10)                  0.9593         0.581962   
     65. B(H  54,C  11)                  0.9593         0.582101   
     66. B(H  55,C  11)                  0.9632         0.573694   
     67. B(H  56,C  11)                  0.9606         0.579201   
     68. B(H  57,C  12)                  0.9592         0.582206   
     69. B(H  58,C  12)                  0.9607         0.579131   
     70. B(H  59,C  12)                  0.9590         0.582745   
     71. B(H  60,C  14)                  0.9585         0.583654   
     72. B(H  61,C  14)                  0.9628         0.574648   
     73. B(H  62,C  14)                  0.9602         0.580144   
     74. B(H  63,C  15)                  0.9598         0.581019   
     75. B(H  64,C  15)                  0.9599         0.580737   
     76. B(H  65,C  15)                  0.9613         0.577754   
     77. B(H  66,C  16)                  0.9581         0.584601   
     78. B(H  67,C  16)                  0.9601         0.580351   
     79. B(H  68,C  16)                  0.9602         0.580041   
     80. B(H  69,C  22)                  0.9614         0.577557   
     81. B(H  70,C  23)                  0.9606         0.579327   
     82. B(H  71,C  26)                  0.9610         0.578405   
     83. B(H  72,C  26)                  0.9599         0.580763   
     84. B(H  73,C  26)                  0.9618         0.576781   
     85. B(H  74,C  27)                  0.9590         0.582601   
     86. B(H  75,C  27)                  0.9600         0.580566   
     87. B(H  76,C  27)                  0.9609         0.578688   
     88. B(H  77,C  28)                  0.9581         0.584510   
     89. B(H  78,C  28)                  0.9579         0.584979   
     90. B(H  79,C  28)                  0.9605         0.579416   
     91. B(H  80,C  30)                  0.9617         0.576954   
     92. B(H  81,C  30)                  0.9599         0.580804   
     93. B(H  82,C  30)                  0.9591         0.582374   
     94. B(H  83,C  31)                  0.9599         0.580803   
     95. B(H  84,C  31)                  0.9604         0.579720   
     96. B(H  85,C  31)                  0.9590         0.582609   
     97. B(H  86,C  32)                  0.9595         0.581651   
     98. B(H  87,C  32)                  0.9625         0.575190   
     99. B(H  88,C  32)                  0.9596         0.581486   
    100. B(H  89,C  38)                  0.9594         0.581712   
    101. B(H  90,C  39)                  0.9603         0.579876   
    102. B(H  91,C  42)                  0.9589         0.582827   
    103. B(H  92,C  42)                  0.9597         0.581231   
    104. B(H  93,C  42)                  0.9606         0.579171   
    105. B(H  94,C  43)                  0.9609         0.578546   
    106. B(H  95,C  43)                  0.9611         0.578255   
    107. B(H  96,C  43)                  0.9600         0.580440   
    108. B(H  97,C  44)                  0.9598         0.580951   
    109. B(H  98,C  44)                  0.9609         0.578645   
    110. B(H  99,C  44)                  0.9620         0.576355   
    111. B(H 100,H  63)                  3.3078         0.000020   
    112. B(H 100,C  46)                  0.9608         0.578774   
    113. B(H 101,C  46)                  0.9592         0.582232   
    114. B(H 102,C  46)                  0.9583         0.584197   
    115. B(H 103,H  83)                  3.0532         0.000051   
    116. B(H 103,C  47)                  0.9590         0.582623   
    117. B(H 104,H  72)                  3.9230         0.000002   
    118. B(H 104,C  47)                  0.9603         0.579832   
    119. B(H 105,C  47)                  0.9623         0.575588   
    120. B(H 106,C  48)                  0.9602         0.580209   
    121. B(H 107,C  48)                  0.9622         0.575952   
    122. B(H 108,C  48)                  0.9606         0.579184   
    123. A(O   1,Fe  0,C  19)          117.5170         0.337919   
    124. A(O  18,Fe  0,O  33)           95.0790         0.533668   
    125. A(O  17,Fe  0,O  18)           78.5644         0.551121   
    126. A(O  18,Fe  0,O  34)           90.9790         0.534839   
    127. A(O  18,Fe  0,C  36)           94.0992         0.324575   
    128. A(O   2,Fe  0,O  33)           87.0732         0.531557   
    129. A(C  19,Fe  0,C  36)          124.5187         0.219932   
    130. A(O   1,Fe  0,C   3)           24.9628         0.330587   
    131. A(O  17,Fe  0,C  19)           24.9822         0.345844   
    132. A(C  20,Fe  0,C  36)          105.8054         0.217852   
    133. A(O   2,Fe  0,O  34)           92.9153         0.532723   
    134. A(O   1,Fe  0,C  36)          112.0382         0.320840   
    135. A(C   4,Fe  0,C  19)          135.9871         0.223830   
    136. A(O   2,Fe  0,O  17)           98.0774         0.548927   
    137. A(O   2,Fe  0,C   3)           55.0938         0.333315   
    138. A(O   1,Fe  0,C  20)          113.9138         0.333965   
    139. A(O   2,Fe  0,C   4)           24.9479         0.330438   
    140. A(C   4,Fe  0,O  33)          108.5003         0.326040   
    141. A(O  17,Fe  0,C  20)           55.3519         0.341765   
    142. A(O  17,Fe  0,O  34)          160.5145         0.541740   
    143. A(C  19,Fe  0,O  33)           81.4715         0.336144   
    144. A(O  18,Fe  0,C  20)           25.0141         0.337912   
    145. A(O   1,Fe  0,O  18)           99.7002         0.536861   
    146. A(C   3,Fe  0,C  36)          101.9546         0.216075   
    147. A(C   3,Fe  0,O  34)           84.2353         0.329497   
    148. A(O   2,Fe  0,C  20)          152.4754         0.336731   
    149. A(C   3,Fe  0,C  20)          138.3502         0.223269   
    150. A(C   4,Fe  0,O  18)          154.6453         0.331590   
    151. A(O  17,Fe  0,C  36)          139.4669         0.328221   
    152. A(O  18,Fe  0,C  19)           55.2223         0.341930   
    153. A(C   3,Fe  0,C   4)           30.5983         0.219859   
    154. A(O   1,Fe  0,C   4)           55.2712         0.327743   
    155. A(C   3,Fe  0,O  17)          115.2465         0.338279   
    156. A(C  20,Fe  0,O  33)           84.5766         0.332218   
    157. A(O  17,Fe  0,O  33)           86.8337         0.540550   
    158. A(O   1,Fe  0,O   2)           79.0129         0.534736   
    159. A(C   4,Fe  0,O  34)           85.2529         0.326665   
    160. A(O   1,Fe  0,O  33)          160.4751         0.526617   
    161. A(O   1,Fe  0,O  17)          108.4927         0.543793   
    162. A(C   4,Fe  0,O  17)          111.1362         0.335344   
    163. A(O   1,Fe  0,O  34)           89.3251         0.527770   
    164. A(O  34,Fe  0,C  36)           23.8925         0.319793   
    165. A(C   4,Fe  0,C  36)           92.4967         0.214579   
    166. A(C   3,Fe  0,C  19)          133.3703         0.225437   
    167. A(C  19,Fe  0,O  34)          138.2161         0.336795   
    168. A(C  20,Fe  0,O  34)          110.7332         0.332859   
    169. A(C  19,Fe  0,C  20)           30.8578         0.227344   
    170. A(C   3,Fe  0,O  18)          124.0929         0.334480   
    171. A(C   4,Fe  0,C  20)          161.5906         0.221688   
    172. A(O  33,Fe  0,C  36)           53.8187         0.319187   
    173. A(O   2,Fe  0,C  36)           90.0078         0.323457   
    174. A(O   2,Fe  0,C  19)          121.8361         0.340729   
    175. A(C   3,Fe  0,O  33)          137.0731         0.328865   
    176. A(O  33,Fe  0,O  34)           77.6741         0.524641   
    177. A(Fe  0,O   1,C   3)          113.2001         0.505710   
    178. A(Fe  0,O   2,C   4)          114.1988         0.504968   
    179. A(Fe  0,C   3,C   8)          163.5196         0.294435   
    180. A(C   4,C   3,C   8)          119.4650         0.400793   
    181. A(O   1,C   3,C   8)          124.2614         0.443350   
    182. A(Fe  0,C   3,C   4)           75.2377         0.289974   
    183. A(O   1,C   3,C   4)          116.2728         0.435656   
    184. A(Fe  0,C   3,O   1)           41.8371         0.317405   
    185. A(O   2,C   4,C   3)          113.8197         0.431176   
    186. A(Fe  0,C   4,C   3)           74.1639         0.287607   
    187. A(Fe  0,C   4,C   5)          160.4277         0.296547   
    188. A(Fe  0,C   4,O   2)           40.8533         0.311799   
    189. A(O   2,C   4,C   5)          123.6069         0.446579   
    190. A(C   3,C   4,C   5)          122.5626         0.407752   
    191. A(C   4,C   5,C   6)          114.9814         0.436408   
    192. A(C   6,C   5,C  13)          124.0801         0.407638   
    193. A(C   4,C   5,C  13)          120.9323         0.394516   
    194. A(C   7,C   6,H  49)          118.5672         0.377460   
    195. A(C   5,C   6,H  49)          118.2982         0.390482   
    196. A(C   5,C   6,C   7)          123.1339         0.435679   
    197. A(C   6,C   7,C   8)          124.8187         0.436939   
    198. A(C   8,C   7,H  50)          116.7616         0.391416   
    199. A(C   6,C   7,H  50)          118.4058         0.377305   
    200. A(C   7,C   8,C   9)          123.6835         0.408445   
    201. A(C   3,C   8,C   9)          121.3226         0.387517   
    202. A(C   3,C   8,C   7)          114.9669         0.430058   
    203. A(C  10,C   9,C  12)          108.1414         0.374454   
    204. A(C   8,C   9,C  12)          112.2059         0.372751   
    205. A(C  10,C   9,C  11)          108.4082         0.372631   
    206. A(C   8,C   9,C  10)          108.6936         0.370279   
    207. A(C   8,C   9,C  11)          109.8477         0.370939   
    208. A(C  11,C   9,C  12)          109.4532         0.375124   
    209. A(H  52,C  10,H  53)          109.3071         0.339866   
    210. A(H  51,C  10,H  53)          109.5065         0.339437   
    211. A(C   9,C  10,H  53)          110.7468         0.355413   
    212. A(H  51,C  10,H  52)          109.4049         0.339475   
    213. A(C   9,C  10,H  52)          107.9139         0.355453   
    214. A(C   9,C  10,H  51)          109.9319         0.354998   
    215. A(H  55,C  11,H  56)          109.2440         0.338748   
    216. A(C   9,C  11,H  56)          108.9108         0.355751   
    217. A(H  54,C  11,H  56)          109.5277         0.339572   
    218. A(H  54,C  11,H  55)          109.4013         0.339030   
    219. A(C   9,C  11,H  55)          109.5001         0.355175   
    220. A(C   9,C  11,H  54)          110.2388         0.356053   
    221. A(C   9,C  12,H  58)          107.8472         0.357459   
    222. A(H  58,C  12,H  59)          109.4333         0.339627   
    223. A(H  57,C  12,H  59)          109.3744         0.339928   
    224. A(C   9,C  12,H  59)          109.5336         0.357837   
    225. A(H  57,C  12,H  58)          109.4975         0.339575   
    226. A(C   9,C  12,H  57)          111.1258         0.357781   
    227. A(C  15,C  13,C  16)          107.4106         0.363869   
    228. A(C  14,C  13,C  16)          108.4873         0.361944   
    229. A(C   5,C  13,C  16)          111.5196         0.364370   
    230. A(C  14,C  13,C  15)          110.7213         0.366241   
    231. A(C   5,C  13,C  15)          109.7383         0.368705   
    232. A(C   5,C  13,C  14)          108.9574         0.366746   
    233. A(H  60,C  14,H  62)          109.6196         0.339815   
    234. A(H  60,C  14,H  61)          109.2656         0.339275   
    235. A(C  13,C  14,H  61)          109.0665         0.351028   
    236. A(C  13,C  14,H  60)          109.9559         0.351952   
    237. A(H  61,C  14,H  62)          109.2531         0.338934   
    238. A(C  13,C  14,H  62)          109.6623         0.351593   
    239. A(H  64,C  15,H  65)          109.4651         0.339297   
    240. A(C  13,C  15,H  65)          109.4231         0.353198   
    241. A(H  63,C  15,H  65)          109.4357         0.339324   
    242. A(H  63,C  15,H  64)          109.4407         0.339616   
    243. A(C  13,C  15,H  64)          109.4106         0.353506   
    244. A(C  13,C  15,H  63)          109.6520         0.353535   
    245. A(H  67,C  16,H  68)          109.3003         0.339483   
    246. A(C  13,C  16,H  68)          110.0572         0.349336   
    247. A(H  66,C  16,H  67)          109.5956         0.339927   
    248. A(C  13,C  16,H  67)          109.2602         0.349367   
    249. A(H  66,C  16,H  68)          109.3988         0.339897   
    250. A(C  13,C  16,H  66)          109.2153         0.349798   
    251. A(Fe  0,O  17,C  19)          113.6531         0.523029   
    252. A(Fe  0,O  18,C  20)          113.4119         0.513558   
    253. A(Fe  0,C  19,O  17)           41.3646         0.326555   
    254. A(C  20,C  19,C  24)          119.2918         0.402462   
    255. A(O  17,C  19,C  24)          125.3056         0.446930   
    256. A(Fe  0,C  19,C  24)          160.9063         0.300811   
    257. A(O  17,C  19,C  20)          115.3415         0.440560   
    258. A(Fe  0,C  19,C  20)           75.2993         0.297042   
    259. A(C  19,C  20,C  21)          123.0541         0.405401   
    260. A(O  18,C  20,C  21)          123.2348         0.447871   
    261. A(Fe  0,C  20,C  21)          158.9422         0.299401   
    262. A(O  18,C  20,C  19)          113.6863         0.438210   
    263. A(Fe  0,C  20,C  19)           73.8430         0.293737   
    264. A(Fe  0,C  20,O  18)           41.5740         0.321219   
    265. A(C  22,C  21,C  25)          124.4687         0.410652   
    266. A(C  20,C  21,C  25)          122.1528         0.395639   
    267. A(C  20,C  21,C  22)          113.3655         0.430074   
    268. A(C  23,C  22,H  69)          118.1863         0.385326   
    269. A(C  21,C  22,H  69)          116.9050         0.388051   
    270. A(C  21,C  22,C  23)          124.9065         0.443514   
    271. A(C  22,C  23,H  70)          118.4516         0.385532   
    272. A(C  24,C  23,H  70)          117.1326         0.386482   
    273. A(C  22,C  23,C  24)          124.4155         0.441410   
    274. A(C  23,C  24,C  29)          124.6201         0.404081   
    275. A(C  19,C  24,C  29)          120.4516         0.388361   
    276. A(C  19,C  24,C  23)          114.8602         0.424901   
    277. A(C  27,C  25,C  28)          107.9337         0.372463   
    278. A(C  26,C  25,C  28)          106.9805         0.372715   
    279. A(C  21,C  25,C  28)          113.3595         0.376629   
    280. A(C  26,C  25,C  27)          107.6709         0.370112   
    281. A(C  21,C  25,C  27)          110.7548         0.373990   
    282. A(C  21,C  25,C  26)          109.9140         0.374243   
    283. A(H  71,C  26,H  73)          109.4760         0.338974   
    284. A(C  25,C  26,H  73)          111.0008         0.354120   
    285. A(H  71,C  26,H  72)          109.3806         0.339363   
    286. A(C  25,C  26,H  72)          109.7705         0.354533   
    287. A(C  25,C  26,H  71)          107.6435         0.354288   
    288. A(H  72,C  26,H  73)          109.5347         0.339204   
    289. A(H  75,C  27,H  76)          109.4427         0.339372   
    290. A(H  74,C  27,H  76)          109.4159         0.339570   
    291. A(C  25,C  27,H  76)          109.3805         0.354082   
    292. A(H  74,C  27,H  75)          109.4707         0.339754   
    293. A(C  25,C  27,H  75)          109.2818         0.354277   
    294. A(C  25,C  27,H  74)          109.8351         0.354487   
    295. A(H  77,C  28,H  79)          109.4782         0.339827   
    296. A(C  25,C  28,H  79)          109.2038         0.356613   
    297. A(H  77,C  28,H  78)          109.5615         0.340370   
    298. A(C  25,C  28,H  78)          110.6006         0.357192   
    299. A(C  25,C  28,H  77)          108.5268         0.357143   
    300. A(H  78,C  28,H  79)          109.4497         0.339873   
    301. A(C  31,C  29,C  32)          107.3338         0.369596   
    302. A(C  30,C  29,C  32)          108.4693         0.363262   
    303. A(C  24,C  29,C  32)          112.2224         0.369765   
    304. A(C  30,C  29,C  31)          109.3344         0.363137   
    305. A(C  24,C  29,C  31)          109.6242         0.369637   
    306. A(C  24,C  29,C  30)          109.7892         0.363302   
    307. A(C  29,C  30,H  82)          110.6475         0.348289   
    308. A(H  81,C  30,H  82)          109.5696         0.339755   
    309. A(H  80,C  30,H  82)          109.4423         0.339378   
    310. A(H  80,C  30,H  81)          109.4021         0.339225   
    311. A(C  29,C  30,H  81)          108.6223         0.348130   
    312. A(C  29,C  30,H  80)          109.1356         0.347741   
    313. A(H  83,C  31,H  85)          109.4349         0.339778   
    314. A(C  29,C  31,H  85)          110.5789         0.354301   
    315. A(H  83,C  31,H  84)          109.5507         0.339496   
    316. A(C  29,C  31,H  84)          109.2539         0.354003   
    317. A(C  29,C  31,H  83)          108.6171         0.354115   
    318. A(H  84,C  31,H  85)          109.3876         0.339672   
    319. A(H  86,C  32,H  88)          109.5676         0.339751   
    320. A(H  87,C  32,H  88)          109.3986         0.339118   
    321. A(H  86,C  32,H  87)          109.3747         0.339134   
    322. A(C  29,C  32,H  87)          109.7678         0.353653   
    323. A(C  29,C  32,H  86)          110.0364         0.354323   
    324. A(C  29,C  32,H  88)          108.6797         0.354306   
    325. A(Fe  0,O  33,C  35)          115.9591         0.498648   
    326. A(Fe  0,O  34,C  36)          116.2144         0.503481   
    327. A(O  33,C  35,C  36)          114.6436         0.436597   
    328. A(C  36,C  35,C  40)          121.5975         0.413494   
    329. A(O  33,C  35,C  40)          123.7520         0.449551   
    330. A(Fe  0,C  36,O  34)           39.8932         0.308006   
    331. A(Fe  0,C  36,C  35)           75.4074         0.284319   
    332. A(C  35,C  36,C  37)          120.8690         0.406796   
    333. A(O  34,C  36,C  37)          123.8263         0.445336   
    334. A(Fe  0,C  36,C  37)          163.6025         0.287417   
    335. A(O  34,C  36,C  35)          115.2912         0.439773   
    336. A(C  38,C  37,C  41)          124.4513         0.409740   
    337. A(C  36,C  37,C  41)          120.4296         0.389916   
    338. A(C  36,C  37,C  38)          115.1161         0.433103   
    339. A(C  39,C  38,H  89)          119.3665         0.377496   
    340. A(C  37,C  38,H  89)          117.8422         0.392280   
    341. A(C  37,C  38,C  39)          122.6876         0.437893   
    342. A(C  40,C  39,H  90)          117.0508         0.393485   
    343. A(C  38,C  39,H  90)          117.8415         0.377290   
    344. A(C  38,C  39,C  40)          125.0811         0.439530   
    345. A(C  39,C  40,C  45)          123.9438         0.409741   
    346. A(C  35,C  40,C  45)          121.4524         0.394825   
    347. A(C  35,C  40,C  39)          114.5955         0.442004   
    348. A(C  43,C  41,C  44)          107.9257         0.365984   
    349. A(C  42,C  41,C  44)          109.2921         0.368507   
    350. A(C  37,C  41,C  44)          109.7816         0.365895   
    351. A(C  42,C  41,C  43)          108.4177         0.372221   
    352. A(C  37,C  41,C  43)          111.1430         0.369574   
    353. A(C  37,C  41,C  42)          110.2249         0.372130   
    354. A(H  92,C  42,H  93)          109.3852         0.339484   
    355. A(H  91,C  42,H  93)          109.4082         0.339639   
    356. A(C  41,C  42,H  93)          108.9613         0.356452   
    357. A(H  91,C  42,H  92)          109.3873         0.339841   
    358. A(C  41,C  42,H  92)          110.2521         0.356668   
    359. A(C  41,C  42,H  91)          109.4304         0.356834   
    360. A(H  95,C  43,H  96)          109.5577         0.339317   
    361. A(H  94,C  43,H  96)          109.4940         0.339345   
    362. A(H  94,C  43,H  95)          109.2539         0.339132   
    363. A(C  41,C  43,H  95)          109.7827         0.353944   
    364. A(C  41,C  43,H  94)          110.5708         0.353974   
    365. A(C  41,C  43,H  96)          108.1634         0.354170   
    366. A(H  98,C  44,H  99)          109.4409         0.338955   
    367. A(H  97,C  44,H  99)          109.4348         0.339180   
    368. A(C  41,C  44,H  99)          110.3932         0.350275   
    369. A(H  97,C  44,H  98)          109.4671         0.339405   
    370. A(C  41,C  44,H  98)          108.3538         0.350509   
    371. A(C  41,C  44,H  97)          109.7311         0.350745   
    372. A(C  47,C  45,C  48)          107.9904         0.370294   
    373. A(C  46,C  45,C  48)          107.7129         0.373491   
    374. A(C  40,C  45,C  48)          111.4143         0.368521   
    375. A(C  46,C  45,C  47)          109.8240         0.373608   
    376. A(C  40,C  45,C  47)          110.1741         0.368636   
    377. A(C  40,C  45,C  46)          109.6727         0.371814   
    378. A(H 101,C  46,H 102)          109.5369         0.340072   
    379. A(H 100,C  46,H 102)          109.4695         0.339734   
    380. A(C  45,C  46,H 102)          109.5091         0.357932   
    381. A(H 100,C  46,H 101)          109.5325         0.339543   
    382. A(C  45,C  46,H 101)          108.9078         0.357727   
    383. A(C  45,C  46,H 100)          109.8705         0.357364   
    384. A(H 104,C  47,H 105)          109.4898         0.338996   
    385. A(H 103,C  47,H 105)          109.3365         0.339268   
    386. A(C  45,C  47,H 105)          109.8893         0.354018   
    387. A(H 103,C  47,H 104)          109.5956         0.339684   
    388. A(C  45,C  47,H 104)          109.0043         0.354459   
    389. A(C  45,C  47,H 103)          109.5120         0.354748   
    390. A(H 107,C  48,H 108)          109.5132         0.338968   
    391. A(H 106,C  48,H 108)          109.4416         0.339385   
    392. A(C  45,C  48,H 108)          109.1229         0.354282   
    393. A(H 106,C  48,H 107)          109.4877         0.339068   
    394. A(C  45,C  48,H 107)          109.9243         0.353947   
    395. A(C  45,C  48,H 106)          109.3362         0.354389   
    396. D(C   3,O   1,Fe  0,C  36)    -70.1184         0.003668   
    397. D(C   3,O   1,Fe  0,C   4)      6.9718         0.003668   
    398. D(C   3,O   1,Fe  0,C  20)    169.8198         0.003668   
    399. D(C   3,O   1,Fe  0,O  17)    110.3159         0.003668   
    400. D(C   3,O   1,Fe  0,O  34)    -77.7186         0.003668   
    401. D(C   3,O   1,Fe  0,O  33)    -29.9393         0.003668   
    402. D(C   3,O   1,Fe  0,O  18)   -168.5965         0.003668   
    403. D(C   3,O   1,Fe  0,O   2)     15.3827         0.003668   
    404. D(C   3,O   1,Fe  0,C  19)    135.6969         0.003668   
    405. D(C   4,O   2,Fe  0,O   1)    -16.5592         0.003895   
    406. D(C   4,O   2,Fe  0,O  34)     72.1858         0.003895   
    407. D(C   4,O   2,Fe  0,O  17)   -123.9442         0.003895   
    408. D(C   4,O   2,Fe  0,C  20)   -137.9572         0.003895   
    409. D(C   4,O   2,Fe  0,O  33)    149.6745         0.003895   
    410. D(C   4,O   2,Fe  0,C  36)     95.9111         0.003895   
    411. D(C   4,O   2,Fe  0,C  19)   -132.2448         0.003895   
    412. D(C   4,O   2,Fe  0,C   3)     -8.7134         0.003895   
    413. D(C   4,C   3,Fe  0,O   1)    168.6980         0.001512   
    414. D(C   4,C   3,Fe  0,O   2)      7.2115         0.001512   
    415. D(C   4,C   3,Fe  0,O  17)     89.1863         0.001512   
    416. D(O   1,C   3,Fe  0,C  20)    -14.0708         0.001512   
    417. D(C   4,C   3,O   1,Fe  0)    -12.2012         0.064540   
    418. D(C   4,C   3,Fe  0,O  18)   -177.6905         0.001512   
    419. D(O   1,C   3,Fe  0,O  18)     13.6115         0.001512   
    420. D(O   1,C   3,Fe  0,O  33)    165.8233         0.001512   
    421. D(O   1,C   3,Fe  0,C  19)    -58.4444         0.001512   
    422. D(O   1,C   3,Fe  0,O  17)    -79.5117         0.001512   
    423. D(O   1,C   3,Fe  0,C  36)    116.9996         0.001512   
    424. D(O   1,C   3,Fe  0,C   4)   -168.6980         0.001512   
    425. D(C   8,C   3,O   1,Fe  0)    168.1274         0.064540   
    426. D(O   1,C   3,Fe  0,O   2)   -161.4865         0.001512   
    427. D(O   1,C   3,Fe  0,O  34)    100.8835         0.001512   
    428. D(C   5,C   4,C   3,Fe  0)    168.7897         0.017614   
    429. D(O   2,C   4,C   3,C   8)    178.0200         0.017614   
    430. D(O   2,C   4,C   3,O   1)     -1.6681         0.017614   
    431. D(O   2,C   4,C   3,Fe  0)    -10.0506         0.017614   
    432. D(Fe  0,C   4,C   3,O   1)      8.3826         0.017614   
    433. D(Fe  0,C   4,C   3,C   8)   -171.9293         0.017614   
    434. D(C   3,C   4,Fe  0,O   1)     -5.7759         0.001511   
    435. D(C   5,C   4,O   2,Fe  0)   -163.9539         0.056682   
    436. D(C   3,C   4,O   2,Fe  0)     14.8726         0.056682   
    437. D(O   2,C   4,Fe  0,O  34)   -107.4279         0.001511   
    438. D(C   3,C   4,Fe  0,O  18)      4.4696         0.001511   
    439. D(O   2,C   4,Fe  0,O  33)    -32.1225         0.001511   
    440. D(O   2,C   4,Fe  0,C  36)    -84.6403         0.001511   
    441. D(C   3,C   4,Fe  0,O  17)   -104.1591         0.001511   
    442. D(O   2,C   4,Fe  0,O  18)    170.3426         0.001511   
    443. D(O   2,C   4,Fe  0,C  19)     64.8425         0.001511   
    444. D(O   2,C   4,Fe  0,O  17)     61.7139         0.001511   
    445. D(C   3,C   4,Fe  0,O   2)   -165.8730         0.001511   
    446. D(O   2,C   4,Fe  0,C   3)    165.8730         0.001511   
    447. D(O   2,C   4,Fe  0,C  20)    101.4843         0.001511   
    448. D(O   2,C   4,Fe  0,O   1)    160.0971         0.001511   
    449. D(C  13,C   5,C   4,O   2)      1.2622         0.024509   
    450. D(C   6,C   5,C   4,C   3)      1.6615         0.024509   
    451. D(C  13,C   5,C   4,Fe  0)    -31.4029         0.024509   
    452. D(C   6,C   5,C   4,O   2)   -179.6123         0.024509   
    453. D(C   6,C   5,C   4,Fe  0)    147.7226         0.024509   
    454. D(H  49,C   6,C   5,C  13)     -0.5175         0.033515   
    455. D(C   7,C   6,C   5,C  13)    179.7927         0.033515   
    456. D(H  49,C   6,C   5,C   4)   -179.6118         0.033515   
    457. D(C   7,C   6,C   5,C   4)      0.6984         0.033515   
    458. D(C   8,C   7,C   6,C   5)     -1.7388         0.022141   
    459. D(C   8,C   7,C   6,H  49)    178.5722         0.022141   
    460. D(H  50,C   7,C   6,H  49)     -0.0245         0.022141   
    461. D(H  50,C   7,C   6,C   5)    179.6645         0.022141   
    462. D(C   9,C   8,C   7,H  50)      0.7119         0.034699   
    463. D(C   3,C   8,C   7,C   6)      0.2227         0.034699   
    464. D(C   3,C   8,C   7,H  50)    178.8403         0.034699   
    465. D(C   7,C   8,C   3,Fe  0)   -149.3564         0.020013   
    466. D(C   7,C   8,C   3,O   1)   -178.2859         0.020013   
    467. D(C   9,C   8,C   3,O   1)     -0.1090         0.020013   
    468. D(C   9,C   8,C   3,Fe  0)     28.8205         0.020013   
    469. D(C   9,C   8,C   7,C   6)   -177.9057         0.034699   
    470. D(C   7,C   8,C   3,C   4)      2.0525         0.020013   
    471. D(C  12,C   9,C   8,C   3)    178.6751         0.011291   
    472. D(C  11,C   9,C   8,C   7)    118.6796         0.011291   
    473. D(C  11,C   9,C   8,C   3)    -59.3341         0.011291   
    474. D(C  10,C   9,C   8,C   3)     59.1268         0.011291   
    475. D(C  10,C   9,C   8,C   7)   -122.8595         0.011291   
    476. D(H  52,C  10,C   9,C  12)    -59.6967         0.012694   
    477. D(H  52,C  10,C   9,C   8)     62.3572         0.012694   
    478. D(H  51,C  10,C   9,C  11)     62.4709         0.012694   
    479. D(H  51,C  10,C   9,C  12)   -178.9479         0.012694   
    480. D(H  51,C  10,C   9,C   8)    -56.8940         0.012694   
    481. D(H  52,C  10,C   9,C  11)   -178.2779         0.012694   
    482. D(H  55,C  11,C   9,C  12)    -58.4864         0.012950   
    483. D(H  55,C  11,C   9,C  10)     59.2608         0.012950   
    484. D(H  55,C  11,C   9,C   8)    177.8977         0.012950   
    485. D(H  54,C  11,C   9,C  12)   -178.8940         0.012950   
    486. D(H  54,C  11,C   9,C  10)    -61.1468         0.012950   
    487. D(H  54,C  11,C   9,C   8)     57.4901         0.012950   
    488. D(H  58,C  12,C   9,C  10)   -178.2473         0.013682   
    489. D(H  58,C  12,C   9,C   8)     61.8822         0.013682   
    490. D(H  57,C  12,C   9,C  11)    179.6463         0.013682   
    491. D(H  57,C  12,C   9,C  10)     61.7323         0.013682   
    492. D(H  58,C  12,C   9,C  11)    -60.3332         0.013682   
    493. D(H  57,C  12,C   9,C   8)    -58.1383         0.013682   
    494. D(C  16,C  13,C   5,C   4)    179.8266         0.011395   
    495. D(C  15,C  13,C   5,C   6)   -118.1105         0.011395   
    496. D(C  15,C  13,C   5,C   4)     60.9324         0.011395   
    497. D(C  14,C  13,C   5,C   6)    120.5092         0.011395   
    498. D(C  14,C  13,C   5,C   4)    -60.4479         0.011395   
    499. D(H  61,C  14,C  13,C  16)    -59.4835         0.011305   
    500. D(H  61,C  14,C  13,C  15)     58.1491         0.011305   
    501. D(H  61,C  14,C  13,C   5)    178.9284         0.011305   
    502. D(H  60,C  14,C  13,C  16)   -179.2784         0.011305   
    503. D(H  60,C  14,C  13,C  15)    -61.6458         0.011305   
    504. D(H  60,C  14,C  13,C   5)     59.1335         0.011305   
    505. D(H  64,C  15,C  13,C  16)    -60.5576         0.011992   
    506. D(H  64,C  15,C  13,C  14)   -178.8472         0.011992   
    507. D(H  64,C  15,C  13,C   5)     60.8381         0.011992   
    508. D(H  63,C  15,C  13,C  16)    179.4063         0.011992   
    509. D(H  63,C  15,C  13,C  14)     61.1166         0.011992   
    510. D(H  63,C  15,C  13,C   5)    -59.1981         0.011992   
    511. D(H  67,C  16,C  13,C  15)   -179.5206         0.010527   
    512. D(H  67,C  16,C  13,C  14)    -59.7958         0.010527   
    513. D(H  67,C  16,C  13,C   5)     60.2072         0.010527   
    514. D(H  66,C  16,C  13,C  15)     60.6112         0.010527   
    515. D(H  66,C  16,C  13,C  14)   -179.6640         0.010527   
    516. D(H  66,C  16,C  13,C   5)    -59.6610         0.010527   
    517. D(C  19,O  17,Fe  0,C  20)      9.0643         0.004364   
    518. D(C  19,O  17,Fe  0,C   4)    174.8486         0.004364   
    519. D(C  19,O  17,Fe  0,O  18)     19.3052         0.004364   
    520. D(C  19,O  17,Fe  0,C   3)    141.7778         0.004364   
    521. D(C  19,O  17,Fe  0,O   2)   -163.1179         0.004364   
    522. D(C  19,O  17,Fe  0,O   1)    115.8287         0.004364   
    523. D(C  19,O  17,Fe  0,C  36)    -63.5520         0.004364   
    524. D(C  19,O  17,Fe  0,O  34)    -39.4010         0.004364   
    525. D(C  19,O  17,Fe  0,O  33)    -76.5290         0.004364   
    526. D(C  20,O  18,Fe  0,C  36)    119.4857         0.003998   
    527. D(C  20,O  18,Fe  0,O  34)    143.2001         0.003998   
    528. D(C  20,O  18,Fe  0,O  33)     65.4882         0.003998   
    529. D(C  20,O  18,O   2,C   4)   -142.9525         0.001500   
    530. D(C  20,O  18,Fe  0,C  19)    -10.4490         0.003998   
    531. D(C  20,O  18,Fe  0,O  17)    -20.2362         0.003998   
    532. D(C  20,O  18,Fe  0,C   4)   -135.8458         0.003998   
    533. D(C  20,O  18,Fe  0,C   3)   -133.1002         0.003998   
    534. D(C  20,O  18,Fe  0,O   1)   -127.3173         0.003998   
    535. D(C  24,C  19,O  17,Fe  0)    161.4316         0.070917   
    536. D(C  20,C  19,O  17,Fe  0)    -15.6903         0.070917   
    537. D(C  20,C  19,Fe  0,C   4)    158.4407         0.001515   
    538. D(C  20,C  19,Fe  0,O   2)   -174.8548         0.001515   
    539. D(C  20,C  19,Fe  0,O   1)     91.1024         0.001515   
    540. D(O  17,C  19,Fe  0,C  36)    135.0732         0.001515   
    541. D(O  17,C  19,Fe  0,O  34)    161.4725         0.001515   
    542. D(O  17,C  19,Fe  0,O  33)    100.9297         0.001515   
    543. D(O  17,C  19,Fe  0,C  20)   -165.3635         0.001515   
    544. D(O  17,C  19,Fe  0,O  18)   -156.7648         0.001515   
    545. D(C  20,C  19,Fe  0,C   3)    115.0247         0.001515   
    546. D(O  17,C  19,Fe  0,C   4)     -6.9228         0.001515   
    547. D(O  17,C  19,Fe  0,C   3)    -50.3388         0.001515   
    548. D(O  17,C  19,Fe  0,O   1)    -74.2611         0.001515   
    549. D(O  17,C  19,Fe  0,O   2)     19.7817         0.001515   
    550. D(O  18,C  20,C  19,C  24)   -178.8085         0.018365   
    551. D(O  18,C  20,C  19,O  17)     -1.5015         0.018365   
    552. D(O  18,C  20,C  19,Fe  0)    -12.1490         0.018365   
    553. D(Fe  0,C  20,C  19,O  17)     10.6475         0.018365   
    554. D(C  21,C  20,O  18,Fe  0)   -160.4994         0.066294   
    555. D(C  19,C  20,O  18,Fe  0)     17.7354         0.066294   
    556. D(C  19,C  20,Fe  0,C   4)    -53.9476         0.001514   
    557. D(C  19,C  20,Fe  0,C   3)    -97.6310         0.001514   
    558. D(C  19,C  20,Fe  0,O   2)      9.4894         0.001514   
    559. D(C  19,C  20,Fe  0,O   1)   -104.0754         0.001514   
    560. D(O  18,C  20,Fe  0,C  36)    -64.4711         0.001514   
    561. D(O  18,C  20,Fe  0,O  34)    -39.8222         0.001514   
    562. D(O  18,C  20,Fe  0,O  33)   -114.4423         0.001514   
    563. D(O  18,C  20,Fe  0,C  19)    163.1163         0.001514   
    564. D(O  18,C  20,Fe  0,O  17)    155.6626         0.001514   
    565. D(Fe  0,C  20,C  19,C  24)   -166.6595         0.018365   
    566. D(O  18,C  20,Fe  0,C   4)    109.1686         0.001514   
    567. D(O  18,C  20,Fe  0,C   3)     65.4853         0.001514   
    568. D(O  18,C  20,Fe  0,O   2)    172.6056         0.001514   
    569. D(C  21,C  20,C  19,Fe  0)    166.0894         0.018365   
    570. D(O  18,C  20,Fe  0,O   1)     59.0408         0.001514   
    571. D(C  25,C  21,C  20,O  18)      2.1305         0.021926   
    572. D(C  25,C  21,C  20,Fe  0)    -35.9307         0.021926   
    573. D(C  22,C  21,C  20,C  19)      2.8019         0.021926   
    574. D(C  22,C  21,C  20,O  18)   -179.1268         0.021926   
    575. D(C  22,C  21,C  20,Fe  0)    142.8120         0.021926   
    576. D(H  69,C  22,C  21,C  25)     -3.1179         0.031553   
    577. D(H  69,C  22,C  21,C  20)    178.1733         0.031553   
    578. D(C  23,C  22,C  21,C  25)    176.3318         0.031553   
    579. D(C  23,C  22,C  21,C  20)     -2.3771         0.031553   
    580. D(H  70,C  23,C  22,H  69)     -1.2430         0.028931   
    581. D(H  70,C  23,C  22,C  21)    179.3138         0.028931   
    582. D(C  24,C  23,C  22,H  69)    178.9767         0.028931   
    583. D(C  24,C  23,C  22,C  21)     -0.4665         0.028931   
    584. D(C  29,C  24,C  23,H  70)      6.0444         0.029819   
    585. D(C  29,C  24,C  23,C  22)   -174.1726         0.029819   
    586. D(C  19,C  24,C  23,H  70)   -176.9586         0.029819   
    587. D(C  19,C  24,C  23,C  22)      2.8243         0.029819   
    588. D(C  29,C  24,C  19,O  17)     -2.1028         0.020135   
    589. D(C  29,C  24,C  19,Fe  0)     37.9370         0.020135   
    590. D(C  23,C  24,C  19,C  20)     -2.2189         0.020135   
    591. D(C  23,C  24,C  19,O  17)   -179.2362         0.020135   
    592. D(C  23,C  24,C  19,Fe  0)   -139.1964         0.020135   
    593. D(C  28,C  25,C  21,C  20)    175.2709         0.013022   
    594. D(C  27,C  25,C  21,C  22)    118.1614         0.013022   
    595. D(C  27,C  25,C  21,C  20)    -63.2386         0.013022   
    596. D(C  26,C  25,C  21,C  22)   -122.9868         0.013022   
    597. D(C  26,C  25,C  21,C  20)     55.6132         0.013022   
    598. D(H  72,C  26,C  25,C  28)    -61.8538         0.012390   
    599. D(H  72,C  26,C  25,C  27)   -177.6504         0.012390   
    600. D(H  72,C  26,C  25,C  21)     61.6203         0.012390   
    601. D(H  71,C  26,C  25,C  28)    179.1759         0.012390   
    602. D(H  71,C  26,C  25,C  27)     63.3794         0.012390   
    603. D(H  71,C  26,C  25,C  21)    -57.3500         0.012390   
    604. D(H  75,C  27,C  25,C  28)   -177.2085         0.012297   
    605. D(H  75,C  27,C  25,C  26)    -62.0410         0.012297   
    606. D(H  75,C  27,C  25,C  21)     58.1586         0.012297   
    607. D(H  74,C  27,C  25,C  28)     62.6857         0.012297   
    608. D(H  74,C  27,C  25,C  26)    177.8533         0.012297   
    609. D(H  74,C  27,C  25,C  21)    -61.9471         0.012297   
    610. D(H  78,C  28,C  25,C  27)     56.5991         0.013303   
    611. D(H  78,C  28,C  25,C  26)    -59.0221         0.013303   
    612. D(H  78,C  28,C  25,C  21)    179.6580         0.013303   
    613. D(H  77,C  28,C  25,C  27)    -63.6132         0.013303   
    614. D(H  77,C  28,C  25,C  26)   -179.2345         0.013303   
    615. D(H  77,C  28,C  25,C  21)     59.4457         0.013303   
    616. D(C  32,C  29,C  24,C  19)   -179.3880         0.011496   
    617. D(C  31,C  29,C  24,C  23)    116.6184         0.011496   
    618. D(C  31,C  29,C  24,C  19)    -60.2207         0.011496   
    619. D(C  30,C  29,C  24,C  23)   -123.2590         0.011496   
    620. D(C  30,C  29,C  24,C  19)     59.9019         0.011496   
    621. D(H  81,C  30,C  29,C  32)    -61.5215         0.010110   
    622. D(H  81,C  30,C  29,C  31)   -178.2704         0.010110   
    623. D(H  81,C  30,C  29,C  24)     61.4310         0.010110   
    624. D(H  80,C  30,C  29,C  32)    179.2711         0.010110   
    625. D(H  80,C  30,C  29,C  31)     62.5222         0.010110   
    626. D(H  80,C  30,C  29,C  24)    -57.7765         0.010110   
    627. D(H  84,C  31,C  29,C  32)   -179.0176         0.012224   
    628. D(H  84,C  31,C  29,C  30)    -61.5522         0.012224   
    629. D(H  84,C  31,C  29,C  24)     58.8474         0.012224   
    630. D(H  83,C  31,C  29,C  32)     61.5295         0.012224   
    631. D(H  83,C  31,C  29,C  30)    178.9950         0.012224   
    632. D(H  83,C  31,C  29,C  24)    -60.6054         0.012224   
    633. D(H  87,C  32,C  29,C  31)     59.7253         0.012272   
    634. D(H  87,C  32,C  29,C  30)    -58.3033         0.012272   
    635. D(H  87,C  32,C  29,C  24)   -179.7726         0.012272   
    636. D(H  86,C  32,C  29,C  31)    -60.6920         0.012272   
    637. D(H  86,C  32,C  29,C  30)   -178.7206         0.012272   
    638. D(H  86,C  32,C  29,C  24)     59.8101         0.012272   
    639. D(C  35,O  33,Fe  0,C  36)      2.8203         0.003534   
    640. D(C  35,O  33,Fe  0,O  34)      4.2969         0.003534   
    641. D(C  35,O  33,Fe  0,C  20)    116.9248         0.003534   
    642. D(C  35,O  33,Fe  0,C  19)    147.8646         0.003534   
    643. D(C  35,O  33,Fe  0,O  18)     94.1902         0.003534   
    644. D(C  35,O  33,Fe  0,O  17)    172.4035         0.003534   
    645. D(C  35,O  33,Fe  0,C   4)    -76.3545         0.003534   
    646. D(C  35,O  33,Fe  0,C   3)    -63.0045         0.003534   
    647. D(C  35,O  33,Fe  0,O   2)    -89.3324         0.003534   
    648. D(C  35,O  33,Fe  0,O   1)    -44.9898         0.003534   
    649. D(C  36,O  34,Fe  0,O   2)     83.4180         0.003582   
    650. D(C  36,O  34,Fe  0,O   1)    162.3807         0.003582   
    651. D(C  36,O  34,Fe  0,O  33)     -2.9436         0.003582   
    652. D(C  36,O  34,Fe  0,C  20)    -82.2150         0.003582   
    653. D(C  36,O  34,Fe  0,C  19)    -64.7569         0.003582   
    654. D(C  36,O  34,Fe  0,O  18)    -97.9287         0.003582   
    655. D(C  36,O  34,Fe  0,O  17)    -41.0335         0.003582   
    656. D(C  36,O  34,Fe  0,C   4)    107.1808         0.003582   
    657. D(C  36,O  34,Fe  0,C   3)    137.8949         0.003582   
    658. D(C  40,C  35,O  33,Fe  0)    174.1817         0.052821   
    659. D(C  36,C  35,O  33,Fe  0)     -4.8726         0.052821   
    660. D(C  37,C  36,C  35,O  33)   -178.9289         0.018398   
    661. D(O  34,C  36,C  35,O  33)      2.3564         0.018398   
    662. D(Fe  0,C  36,C  35,C  40)   -175.8376         0.018398   
    663. D(Fe  0,C  36,C  35,O  33)      3.2392         0.018398   
    664. D(C  35,C  36,O  34,Fe  0)      1.3321         0.064000   
    665. D(C  35,C  36,Fe  0,C   4)    108.8797         0.001509   
    666. D(C  35,C  36,Fe  0,C   3)    138.2530         0.001509   
    667. D(C  35,C  36,Fe  0,O   2)     84.0484         0.001509   
    668. D(C  35,C  36,Fe  0,O   1)    162.1863         0.001509   
    669. D(O  34,C  36,Fe  0,O  33)    176.4365         0.001509   
    670. D(O  34,C  36,Fe  0,C  20)    105.6284         0.001509   
    671. D(O  34,C  36,Fe  0,C  19)    132.9898         0.001509   
    672. D(O  34,C  36,Fe  0,O  18)     83.1375         0.001509   
    673. D(C  37,C  36,O  34,Fe  0)   -177.3399         0.064000   
    674. D(O  34,C  36,Fe  0,O  17)    160.3081         0.001509   
    675. D(O  34,C  36,Fe  0,C   4)    -72.3648         0.001509   
    676. D(O  34,C  36,Fe  0,C   3)    -42.9915         0.001509   
    677. D(O  34,C  36,C  35,C  40)   -176.7204         0.018398   
    678. D(O  34,C  36,Fe  0,O   2)    -97.1962         0.001509   
    679. D(O  34,C  36,Fe  0,O   1)    -19.0582         0.001509   
    680. D(C  41,C  37,C  36,O  34)     -2.4307         0.021219   
    681. D(C  41,C  37,C  36,Fe  0)     -8.4834         0.021219   
    682. D(C  38,C  37,C  36,C  35)     -0.4355         0.021219   
    683. D(C  38,C  37,C  36,O  34)    178.1656         0.021219   
    684. D(C  38,C  37,C  36,Fe  0)    172.1129         0.021219   
    685. D(H  89,C  38,C  37,C  41)     -3.2644         0.035530   
    686. D(H  89,C  38,C  37,C  36)    176.1121         0.035530   
    687. D(C  39,C  38,C  37,C  41)   -179.5338         0.035530   
    688. D(C  39,C  38,C  37,C  36)     -0.1572         0.035530   
    689. D(H  90,C  39,C  38,H  89)      4.8902         0.022197   
    690. D(H  90,C  39,C  38,C  37)   -178.8951         0.022197   
    691. D(C  40,C  39,C  38,H  89)   -177.0478         0.022197   
    692. D(C  40,C  39,C  38,C  37)     -0.8331         0.022197   
    693. D(C  45,C  40,C  39,H  90)      1.3579         0.037166   
    694. D(C  45,C  40,C  39,C  38)   -176.7179         0.037166   
    695. D(C  35,C  40,C  39,H  90)   -179.6825         0.037166   
    696. D(C  35,C  40,C  39,C  38)      2.2417         0.037166   
    697. D(C  45,C  40,C  35,C  36)    176.2307         0.023687   
    698. D(C  45,C  40,C  35,O  33)     -2.7600         0.023687   
    699. D(C  39,C  40,C  35,C  36)     -2.7575         0.023687   
    700. D(C  39,C  40,C  35,O  33)    178.2517         0.023687   
    701. D(C  44,C  41,C  37,C  36)     61.0648         0.011441   
    702. D(C  43,C  41,C  37,C  38)     -0.2636         0.011441   
    703. D(C  43,C  41,C  37,C  36)   -179.6089         0.011441   
    704. D(C  42,C  41,C  37,C  38)    119.9672         0.011441   
    705. D(C  42,C  41,C  37,C  36)    -59.3781         0.011441   
    706. D(H  92,C  42,C  41,C  44)     57.3451         0.013246   
    707. D(H  92,C  42,C  41,C  43)    -60.0589         0.013246   
    708. D(H  92,C  42,C  41,C  37)    178.0818         0.013246   
    709. D(H  91,C  42,C  41,C  44)    -63.0092         0.013246   
    710. D(H  91,C  42,C  41,C  43)    179.5868         0.013246   
    711. D(H  91,C  42,C  41,C  37)     57.7275         0.013246   
    712. D(H  95,C  43,C  41,C  44)    -58.0250         0.012261   
    713. D(H  95,C  43,C  41,C  42)     60.2502         0.012261   
    714. D(H  95,C  43,C  41,C  37)   -178.4544         0.012261   
    715. D(H  94,C  43,C  41,C  44)   -178.6414         0.012261   
    716. D(H  94,C  43,C  41,C  42)    -60.3662         0.012261   
    717. D(H  94,C  43,C  41,C  37)     60.9292         0.012261   
    718. D(H  98,C  44,C  41,C  43)    -61.4290         0.010976   
    719. D(H  98,C  44,C  41,C  42)   -179.1426         0.010976   
    720. D(H  98,C  44,C  41,C  37)     59.8507         0.010976   
    721. D(H  97,C  44,C  41,C  43)    179.0976         0.010976   
    722. D(H  97,C  44,C  41,C  42)     61.3841         0.010976   
    723. D(H  97,C  44,C  41,C  37)    -59.6226         0.010976   
    724. D(C  48,C  45,C  40,C  35)   -179.9426         0.011003   
    725. D(C  47,C  45,C  40,C  39)   -120.8888         0.011003   
    726. D(C  47,C  45,C  40,C  35)     60.2201         0.011003   
    727. D(C  46,C  45,C  40,C  39)    118.1103         0.011003   
    728. D(C  46,C  45,C  40,C  35)    -60.7807         0.011003   
    729. D(H 101,C  46,C  45,C  48)   -177.6635         0.013657   
    730. D(H 101,C  46,C  45,C  47)    -60.2899         0.013657   
    731. D(H 101,C  46,C  45,C  40)     60.9221         0.013657   
    732. D(H 100,C  46,C  45,C  48)     62.3644         0.013657   
    733. D(H 100,C  46,C  45,C  47)    179.7380         0.013657   
    734. D(H 100,C  46,C  45,C  40)    -59.0499         0.013657   
    735. D(H 104,C  47,C  45,C  48)    -60.7667         0.012399   
    736. D(H 104,C  47,C  45,C  46)   -177.9671         0.012399   
    737. D(H 104,C  47,C  45,C  40)     61.1226         0.012399   
    738. D(H 103,C  47,C  45,C  48)    179.3412         0.012399   
    739. D(H 103,C  47,C  45,C  46)     62.1408         0.012399   
    740. D(H 103,C  47,C  45,C  40)    -58.7695         0.012399   
    741. D(H 107,C  48,C  45,C  47)    -59.2121         0.012356   
    742. D(H 107,C  48,C  45,C  46)     59.3445         0.012356   
    743. D(H 107,C  48,C  45,C  40)    179.6670         0.012356   
    744. D(H 106,C  48,C  45,C  47)   -179.4274         0.012356   
    745. D(H 106,C  48,C  45,C  46)    -60.8708         0.012356   
    746. D(H 106,C  48,C  45,C  40)     59.4517         0.012356   
    -----------------------------------------------------------------

Number of atoms                         .... 109
Number of degrees of freedom            .... 746


         *************************************************************
         *                GEOMETRY OPTIMIZATION CYCLE   1            *
         *************************************************************
---------------------------------
CARTESIAN COORDINATES (ANGSTROEM)
---------------------------------
  Fe    17.520300    1.823000   15.059400
  O     17.736000    0.072100   16.025000
  O     18.761300    0.858600   13.826400
  C     18.723000   -0.613100   15.606100
  C     19.338900   -0.165200   14.353100
  C     20.477600   -0.792300   13.798500
  C     20.940000   -1.867300   14.496800
  C     20.327700   -2.341900   15.681900
  C     19.245700   -1.775300   16.276400
  C     18.637100   -2.279100   17.573300
  C     17.182200   -2.608300   17.329900
  C     18.712000   -1.201800   18.626700
  C     19.318800   -3.518100   18.076100
  C     21.119100   -0.262900   12.529500
  C     20.095600   -0.316400   11.396300
  C     21.599800    1.161100   12.753000
  C     22.341800   -1.102900   12.122500
  O     15.893700    1.727600   13.946100
  O     16.178800    2.696800   16.244500
  C     14.994500    2.540900   14.293300
  C     15.158900    3.124900   15.622000
  C     14.276200    4.113800   16.152700
  C     13.230700    4.412800   15.318800
  C     13.042500    3.871800   14.061800
  C     13.890500    2.960900   13.471300
  C     14.513800    4.764100   17.481500
  C     15.891900    5.392400   17.509400
  C     14.451600    3.741500   18.598800
  C     13.526800    5.855400   17.796700
  C     13.758900    2.459400   12.046700
  C     13.649300    0.919100   12.042700
  C     14.976200    2.878300   11.244700
  C     12.539800    3.029500   11.348400
  O     17.982700    3.505300   14.041900
  O     19.033700    2.585100   16.152700
  C     18.995300    4.165000   14.476800
  C     19.574700    3.646100   15.701800
  C     20.695000    4.292900   16.316300
  C     21.153800    5.390000   15.665900
  C     20.574400    5.864700   14.464800
  C     19.532600    5.291100   13.826400
  C     21.278100    3.755500   17.609200
  C     20.230800    3.752000   18.690600
  C     22.446000    4.602400   18.076100
  C     21.788000    2.326800   17.393700
  C     18.975200    5.782100   12.497600
  C     19.121400    4.707100   11.460100
  C     17.514800    6.154400   12.649300
  C     19.720900    7.004800   12.002800
  H     21.714900   -2.325600   14.165600
  H     20.707800   -3.108600   16.116800
  H     16.723500   -1.834700   16.990700
  H     17.143800   -3.312200   16.679500
  H     16.760000   -2.901500   18.139900
  H     18.264200   -0.409500   18.323500
  H     18.295300   -1.514700   19.436800
  H     19.635000   -1.001700   18.802300
  H     19.280400   -4.222000   17.425600
  H     20.236300   -3.297100   18.255600
  H     18.896600   -3.810100   18.886100
  H     19.327900    0.210600   11.623700
  H     20.495800    0.034900   10.594200
  H     19.828700   -1.226200   11.244700
  H     20.857700    1.717200   13.000400
  H     22.254100    1.170400   13.455300
  H     21.994500    1.496100   11.943000
  H     22.988800   -1.080800   12.828800
  H     22.065800   -2.009200   11.966900
  H     22.732900   -0.748100   11.320500
  H     12.589200    5.053800   15.638000
  H     12.269400    4.140500   13.559000
  H     16.531500    4.700100   17.321900
  H     15.952200    6.072900   16.835100
  H     16.078300    5.776300   18.371300
  H     13.578000    3.347100   18.630700
  H     15.105900    3.057400   18.439200
  H     14.638000    4.173100   19.436800
  H     12.645900    5.478500   17.796700
  H     13.711400    6.239300   18.654700
  H     13.583500    6.537100   17.122400
  H     14.424200    0.546800   12.473700
  H     12.861500    0.666600   12.529500
  H     13.592600    0.586400   11.144900
  H     15.025500    3.836900   11.240700
  H     15.765700    2.517600   11.655700
  H     14.912200    2.558300   10.342900
  H     12.594700    3.987000   11.320500
  H     12.488700    2.686300   10.450600
  H     11.755800    2.766600   11.835200
  H     21.866600    5.886800   16.072900
  H     20.965500    6.639500   14.053800
  H     19.481500    3.224900   18.407300
  H     20.590900    3.384300   19.500600
  H     19.943900    4.654800   18.850200
  H     22.162700    5.505200   18.243700
  H     22.815200    4.231300   18.882100
  H     23.113100    4.598900   17.385700
  H     21.064200    1.763700   17.110400
  H     22.464300    2.346600   16.711400
  H     22.164500    1.978900   18.207700
  H     20.048000    4.473300   11.360400
  H     18.624300    3.935800   11.739500
  H     18.779600    5.022400   10.622200
  H     17.019500    5.391200   12.952500
  H     17.438100    6.864100   13.291700
  H     17.162100    6.447600   11.803300
  H     20.649400    6.787300   11.891100
  H     19.355300    7.293400   11.160900
  H     19.633200    7.709900   12.649300

----------------------------
CARTESIAN COORDINATES (A.U.)
----------------------------
  NO LB      ZA    FRAG     MASS         X           Y           Z
   0 Fe   26.0000    0    55.850   33.108569    3.444971   28.458142
   1 O     8.0000    0    15.999   33.516183    0.136249   30.282861
   2 O     8.0000    0    15.999   35.453719    1.622519   26.128109
   3 C     6.0000    0    12.011   35.381342   -1.158591   29.491255
   4 C     6.0000    0    12.011   36.545225   -0.312183   27.123428
   5 C     6.0000    0    12.011   38.697056   -1.497230   26.075386
   6 C     6.0000    0    12.011   39.570865   -3.528686   27.394982
   7 C     6.0000    0    12.011   38.413786   -4.425550   29.634496
   8 C     6.0000    0    12.011   36.369102   -3.354831   30.757938
   9 C     6.0000    0    12.011   35.219015   -4.306875   33.208724
  10 C     6.0000    0    12.011   32.469652   -4.928973   32.748765
  11 C     6.0000    0    12.011   35.360555   -2.271073   35.199362
  12 C     6.0000    0    12.011   36.507241   -6.648246   34.158879
  13 C     6.0000    0    12.011   39.909315   -0.496809   23.677324
  14 C     6.0000    0    12.011   37.975180   -0.597909   21.535886
  15 C     6.0000    0    12.011   40.817707    2.194161   24.099677
  16 C     6.0000    0    12.011   42.219883   -2.084179   22.908205
  17 O     8.0000    0    15.999   30.034740    3.264691   26.354310
  18 O     8.0000    0    15.999   30.573501    5.096213   30.697656
  19 C     6.0000    0    12.011   28.335499    4.801605   27.010423
  20 C     6.0000    0    12.011   28.646169    5.905205   29.521302
  21 C     6.0000    0    12.011   26.978108    7.773955   30.524179
  22 C     6.0000    0    12.011   25.002400    8.338983   28.948337
  23 C     6.0000    0    12.011   24.646753    7.316642   26.572951
  24 C     6.0000    0    12.011   26.249241    5.595290   25.457068
  25 C     6.0000    0    12.011   27.427107    9.002844   33.035247
  26 C     6.0000    0    12.011   30.031339   10.190159   33.087971
  27 C     6.0000    0    12.011   27.309566    7.070410   35.146638
  28 C     6.0000    0    12.011   25.561947   11.065102   33.630889
  29 C     6.0000    0    12.011   26.000553    4.647592   22.764964
  30 C     6.0000    0    12.011   25.793439    1.736847   22.757405
  31 C     6.0000    0    12.011   28.300917    5.439199   21.249403
  32 C     6.0000    0    12.011   23.696788    5.724925   21.445368
  33 O     8.0000    0    15.999   33.982378    6.624057   26.535345
  34 O     8.0000    0    15.999   35.968480    4.885131   30.524179
  35 C     6.0000    0    12.011   35.895915    7.870709   27.357187
  36 C     6.0000    0    12.011   36.990822    6.890130   29.672102
  37 C     6.0000    0    12.011   39.107882    8.112405   30.833339
  38 C     6.0000    0    12.011   39.974889   10.185624   29.604261
  39 C     6.0000    0    12.011   38.879981   11.082677   27.334511
  40 C     6.0000    0    12.011   36.911265    9.998730   26.128109
  41 C     6.0000    0    12.011   40.209782    7.096866   33.276565
  42 C     6.0000    0    12.011   38.230671    7.090252   35.320115
  43 C     6.0000    0    12.011   42.416793    8.697276   34.158879
  44 C     6.0000    0    12.011   41.173353    4.397015   32.869329
  45 C     6.0000    0    12.011   35.857931   10.926585   23.617041
  46 C     6.0000    0    12.011   36.134209    8.895130   21.656450
  47 C     6.0000    0    12.011   33.098175   11.630131   23.903713
  48 C     6.0000    0    12.011   37.267100   13.237154   22.682005
  49 H     1.0000    0     1.008   41.035214   -4.394747   26.769105
  50 H     1.0000    0     1.008   39.132071   -5.874403   30.456338
  51 H     1.0000    0     1.008   31.602835   -3.467081   32.107770
  52 H     1.0000    0     1.008   32.397087   -6.259151   31.519687
  53 H     1.0000    0     1.008   31.671810   -5.483040   34.279443
  54 H     1.0000    0     1.008   34.514336   -0.773843   34.626397
  55 H     1.0000    0     1.008   34.573107   -2.862368   36.730229
  56 H     1.0000    0     1.008   37.104773   -1.892939   35.531198
  57 H     1.0000    0     1.008   36.434676   -7.978424   32.929612
  58 H     1.0000    0     1.008   38.241065   -6.230616   34.498084
  59 H     1.0000    0     1.008   35.709399   -7.200046   35.689557
  60 H     1.0000    0     1.008   36.524438    0.397976   21.965610
  61 H     1.0000    0     1.008   38.731449    0.065951   20.020137
  62 H     1.0000    0     1.008   37.470813   -2.317182   21.249403
  63 H     1.0000    0     1.008   39.415341    3.245038   24.567196
  64 H     1.0000    0     1.008   42.054154    2.211735   25.426832
  65 H     1.0000    0     1.008   41.563581    2.827219   22.568999
  66 H     1.0000    0     1.008   43.442536   -2.042416   24.242919
  67 H     1.0000    0     1.008   41.698319   -3.796838   22.614164
  68 H     1.0000    0     1.008   42.958955   -1.413704   21.392645
  69 H     1.0000    0     1.008   23.790140    9.550298   29.551537
  70 H     1.0000    0     1.008   23.185806    7.824411   25.622797
  71 H     1.0000    0     1.008   31.240008    8.881902   32.733647
  72 H     1.0000    0     1.008   30.145289   11.476118   31.813728
  73 H     1.0000    0     1.008   30.383584   10.915625   34.716726
[...]
 H     12  10   9     0.959267621678   110.23877840    57.49013933
 H     12  10   9     0.963227548402   109.50009097   177.89773631
 H     12  10   9     0.960627071240   108.91084581   297.29838563
 H     13  10   9     0.959218442275   111.12584591   301.86171334
 H     13  10   9     0.960659929424   107.84720075    61.88215598
 H     13  10   9     0.958966547905   109.53361185   180.90149903
 H     15  14   6     0.958542148265   109.95589854    59.13348238
 H     15  14   6     0.962775228182   109.06648998   178.92836490
 H     15  14   6     0.960184466652   109.66226968   298.53084999
 H     16  14   6     0.959774129678   109.65199182   300.80194037
 H     16  14   6     0.959906386061   109.41061058    60.83812389
 H     16  14   6     0.961308009953   109.42309799   180.76417033
 H     17  14   6     0.958100777580   109.21533185   300.33895957
 H     17  14   6     0.960087001266   109.26018710    60.20717119
 H     17  14   6     0.960232393746   110.05723921   180.22650652
 H     23  22  21     0.961401003744   116.90504237   178.17325334
 H     24  23  22     0.960568133971   118.45156281   179.31379909
 H     27  26  22     0.961001404786   107.64354139   302.65004722
 H     27  26  22     0.959894176459   109.77047535    61.62032015
 H     27  26  22     0.961767009208   111.00081568   182.85771245
 H     28  26  22     0.959033852374   109.83509435   298.05288349
 H     28  26  22     0.959986176984   109.28184620    58.15862373
 H     28  26  22     0.960868107494   109.38045777   177.95323343
 H     29  26  22     0.958143214765   108.52681052    59.44566674
 H     29  26  22     0.957925033601   110.60055808   179.65802270
 H     29  26  22     0.960526038169   109.20376958   300.16288634
 H     31  30  25     0.961685135582   109.13556767   302.22351912
 H     31  30  25     0.959874642857   108.62234457    61.43097972
 H     31  30  25     0.959139729132   110.64751529   181.74220498
 H     32  30  25     0.959875226266   108.61709013   299.39462761
 H     32  30  25     0.960383121468   109.25394640    58.84744760
 H     32  30  25     0.959030364483   110.57894497   179.29402937
 H     33  30  25     0.959478332220   110.03644289    59.81013983
 H     33  30  25     0.962518721896   109.76784789   180.22741956
 H     33  30  25     0.959555443943   108.67971163   299.83559041
 H     39  38  37     0.959449362916   117.84215907   176.11208577
 H     40  39  38     0.960309975997   117.84151170   181.10488454
 H     43  42  38     0.958928459271   109.43042905    57.72750188
 H     43  42  38     0.959674580261   110.25210654   178.08183081
 H     43  42  38     0.960641249375   108.96133000   298.13832504
 H     44  42  38     0.960935216339   110.57078525    60.92916280
 H     44  42  38     0.961072239741   109.78266547   181.54558548
 H     44  42  38     0.960045217685   108.16342570   301.04469782
 H     45  42  38     0.959805678250   109.73108050   300.37735483
 H     45  42  38     0.960888661604   108.35376305    59.85072910
 H     45  42  38     0.961968117975   110.39323013   179.68266571
 H     47  46  41     0.960827814960   109.87052818   300.95006018
 H     47  46  41     0.959206161365   108.90782396    60.92213785
 H     47  46  41     0.958288964770   109.50906111   180.68252605
 H     48  46  41     0.959023758830   109.51195095   301.23045967
 H     48  46  41     0.960330536847   109.00429303    61.12258356
 H     48  46  41     0.962330260358   109.88929973   181.11322540
 H     49  46  41     0.960153836632   109.33620155    59.45167917
 H     49  46  41     0.962158474473   109.92434290   179.66695577
 H     49  46  41     0.960634972297   109.12291759   299.78099956

---------------------------
INTERNAL COORDINATES (A.U.)
---------------------------
 Fe     0   0   0     0.000000000000     0.00000000     0.00000000
 O      1   0   0     3.800445822797     0.00000000     0.00000000
 O      1   2   0     3.774931871864    79.01294051     0.00000000
 C      2   1   3     2.404594083727   113.20014948    15.38265551
 C      3   1   2     2.434155851667   114.19884631   343.44078607
 C      5   3   1     2.670787631022   123.60689813   196.04611071
 C      6   5   3     2.575206322500   114.98136933   180.38770295
 C      7   6   5     2.675560229684   123.13394163     0.69839511
 C      8   7   6     2.566961724058   124.81871122   358.26122028
 C      9   8   7     2.869745604395   123.68348186   182.09429017
 C     10   9   8     2.856144738220   108.69361343   237.14054430
 C     10   9   8     2.850817609148   109.84774325   118.67962909
 C     10   9   8     2.836254020546   112.20585443   356.68881574
 C      6   5   3     2.867249280308   120.93225305     1.26223324
 C     14   6   5     2.887360999382   108.95738499   299.55209594
 C     14   6   5     2.871389418763   109.73826838    60.93239922
 C     14   6   5     2.906890406791   111.51963160   179.82661086
 O      1   2   3     3.729213346892   108.49270099    94.93322291
 O      1   2   3     3.764119439363    99.70019807   176.02082904
 C     18   1   2     2.383277596565   113.65311967   115.82867538
 C     19   1   2     2.398517258095   113.41191130   232.68271280
 C     21  19   1     2.698225189544   123.23475787   199.50057967
 C     22  21  19     2.589587129832   113.36547080   180.87322258
 C     23  22  21     2.610387844926   124.90650105   357.62291267
 C     24  23  22     2.603116139088   124.41545690   359.53348194
 C     22  21  19     2.831471510628   122.15282591     2.13052303
 C     26  22  21     2.862606966489   109.91397051    55.61322776
 C     26  22  21     2.864627170038   110.75476294   296.76142838
 C     26  22  21     2.843680412283   113.35947678   175.27090393
 C     25  24  23     2.864855963187   124.62007343   185.82737603
 C     30  25  24     2.918114245490   109.78922889   236.74099581
 C     30  25  24     2.866223386057   109.62422586   116.61842399
 C     30  25  24     2.865189845734   112.22239174   357.45104757
 O      1   2   3     3.816710379327   160.47509415   314.67800853
 O      1   2   3     3.810730495324    89.32509507   266.89876283
 C     34   1   2     2.427177120170   115.95906528   315.01024876
 C     35   1   2     2.406499871346   116.21437484   162.38070448
 C     37  35   1     2.706357399839   123.82633013   182.66014255
 C     38  37  35     2.561360490296   115.11611144   178.16556532
 C     39  38  37     2.674937654108   122.68757241   359.84276442
 C     40  39  38     2.550723439309   125.08109320   359.16690284
 C     38  37  35     2.866157526341   120.42961903   357.56930638
 C     42  38  37     2.844822807119   110.22494415   300.62190232
 C     42  38  37     2.865429087470   111.14297597   180.39107104
 C     42  38  37     2.895429200151   109.78157937    61.06479651
 C     41  40  39     2.876784657240   123.94381599   183.28208151
 C     46  41  40     2.836733663502   109.67273234   118.11028847
 C     46  41  40     2.862413243922   110.17409480   239.11116339
 C     46  41  40     2.863350316065   111.41427579   358.94844068
 H      7   6   5     1.812760944414   118.29815541   180.38817883
 H      8   7   6     1.813982468914   118.40583275   179.66447374
 H     11  10   9     1.816418374474   109.93187540   303.10600102
 H     11  10   9     1.812532010864   107.91390402    62.35717024
 H     11  10   9     1.812875927278   110.74682450   181.96248445
 H     12  10   9     1.812753094110   110.23877840    57.49013933
 H     12  10   9     1.820236271128   109.50009097   177.89773631
 H     12  10   9     1.815322081475   108.91084581   297.29838563
 H     13  10   9     1.812660158506   111.12584591   301.86171334
 H     13  10   9     1.815384174443   107.84720075    61.88215598
 H     13  10   9     1.812184147132   109.53361185   180.90149903
 H     15  14   6     1.811382148041   109.95589854    59.13348238
 H     15  14   6     1.819381509787   109.06648998   178.92836490
 H     15  14   6     1.814485680018   109.66226968   298.53084999
 H     16  14   6     1.813710255515   109.65199182   300.80194037
 H     16  14   6     1.813960183857   109.41061058    60.83812389
 H     16  14   6     1.816608869156   109.42309799   180.76417033
 H     17  14   6     1.810548078324   109.21533185   300.33895957
 H     17  14   6     1.814301497131   109.26018710    60.20717119
 H     17  14   6     1.814576249100   110.05723921   180.22650652
 H     23  22  21     1.816784601953   116.90504237   178.17325334
 H     24  23  22     1.815210706176   118.45156281   179.31379909
 H     27  26  22     1.816029469358   107.64354139   302.65004722
 H     27  26  22     1.813937111053   109.77047535    61.62032015
 H     27  26  22     1.817476252043   111.00081568   182.85771245
 H     28  26  22     1.812311334147   109.83509435   298.05288349
 H     28  26  22     1.814110966849   109.28184620    58.15862373
 H     28  26  22     1.815777573984   109.38045777   177.95323343
 H     29  26  22     1.810628272981   108.52681052    59.44566674
 H     29  26  22     1.810215970334   110.60055808   179.65802270
 H     29  26  22     1.815131156639   109.20376958   300.16288634
 H     31  30  25     1.817321533314   109.13556767   302.22351912
 H     31  30  25     1.813900197895   108.62234457    61.43097972
 H     31  30  25     1.812511412223   110.64751529   181.74220498
 H     32  30  25     1.813901300379   108.61709013   299.39462761
 H     32  30  25     1.814861083214   109.25394640    58.84744760
 H     32  30  25     1.812304742987   110.57894497   179.29402937
 H     33  30  25     1.813151279328   110.03644289    59.81013983
 H     33  30  25     1.818896783155   109.76784789   180.22741956
 H     33  30  25     1.813296999365   108.67971163   299.83559041
 H     39  38  37     1.813096535277   117.84215907   176.11208577
 H     40  39  38     1.814722858307   117.84151170   181.10488454
 H     43  42  38     1.812112170045   109.43042905    57.72750188
 H     43  42  38     1.813522134380   110.25210654   178.08183081
 H     43  42  38     1.815348874266   108.96133000   298.13832504
 H     44  42  38     1.815904391321   110.57078525    60.92916280
 H     44  42  38     1.816163328024   109.78266547   181.54558548
 H     44  42  38     1.814222537606   108.16342570   301.04469782
 H     45  42  38     1.813769873674   109.73108050   300.37735483
 H     45  42  38     1.815816415623   108.35376305    59.85072910
 H     45  42  38     1.817856292536   110.39323013   179.68266571
 H     47  46  41     1.815701432128   109.87052818   300.95006018
 H     47  46  41     1.812636950949   108.90782396    60.92213785
 H     47  46  41     1.810903700574   109.50906111   180.68252605
 H     48  46  41     1.812292260112   109.51195095   301.23045967
 H     48  46  41     1.814761712682   109.00429303    61.12258356
 H     48  46  41     1.818540642461   109.88929973   181.11322540
 H     49  46  41     1.814427797669   109.33620155    59.45167917
 H     49  46  41     1.818216014185   109.92434290   179.66695577
 H     49  46  41     1.815337012308   109.12291759   299.78099956

---------------------
BASIS SET INFORMATION
---------------------
There are 4 groups of distinct atoms

 Group   1 Type Fe  : 17s11p7d1f contracted to 6s4p4d1f pattern {842111/6311/4111/1}
 Group   2 Type O   : 11s6p2d1f contracted to 5s3p2d1f pattern {62111/411/11/1}
 Group   3 Type C   : 11s6p2d1f contracted to 5s3p2d1f pattern {62111/411/11/1}
 Group   4 Type H   : 5s1p contracted to 3s1p pattern {311/1}

Atom   0Fe   basis set group =>   1
Atom   1O    basis set group =>   2
Atom   2O    basis set group =>   2
Atom   3C    basis set group =>   3
Atom   4C    basis set group =>   3
Atom   5C    basis set group =>   3
Atom   6C    basis set group =>   3
Atom   7C    basis set group =>   3
Atom   8C    basis set group =>   3
Atom   9C    basis set group =>   3
Atom  10C    basis set group =>   3
Atom  11C    basis set group =>   3
Atom  12C    basis set group =>   3
Atom  13C    basis set group =>   3
Atom  14C    basis set group =>   3
Atom  15C    basis set group =>   3
Atom  16C    basis set group =>   3
Atom  17O    basis set group =>   2
Atom  18O    basis set group =>   2
Atom  19C    basis set group =>   3
Atom  20C    basis set group =>   3
Atom  21C    basis set group =>   3
Atom  22C    basis set group =>   3
Atom  23C    basis set group =>   3
Atom  24C    basis set group =>   3
Atom  25C    basis set group =>   3
Atom  26C    basis set group =>   3
Atom  27C    basis set group =>   3
Atom  28C    basis set group =>   3
Atom  29C    basis set group =>   3
Atom  30C    basis set group =>   3
Atom  31C    basis set group =>   3
Atom  32C    basis set group =>   3
Atom  33O    basis set group =>   2
Atom  34O    basis set group =>   2
Atom  35C    basis set group =>   3
Atom  36C    basis set group =>   3
Atom  37C    basis set group =>   3
Atom  38C    basis set group =>   3
Atom  39C    basis set group =>   3
Atom  40C    basis set group =>   3
Atom  41C    basis set group =>   3
Atom  42C    basis set group =>   3
Atom  43C    basis set group =>   3
Atom  44C    basis set group =>   3
Atom  45C    basis set group =>   3
Atom  46C    basis set group =>   3
Atom  47C    basis set group =>   3
Atom  48C    basis set group =>   3
Atom  49H    basis set group =>   4
Atom  50H    basis set group =>   4
Atom  51H    basis set group =>   4
Atom  52H    basis set group =>   4
Atom  53H    basis set group =>   4
Atom  54H    basis set group =>   4
Atom  55H    basis set group =>   4
Atom  56H    basis set group =>   4
Atom  57H    basis set group =>   4
Atom  58H    basis set group =>   4
Atom  59H    basis set group =>   4
Atom  60H    basis set group =>   4
Atom  61H    basis set group =>   4
Atom  62H    basis set group =>   4
Atom  63H    basis set group =>   4
Atom  64H    basis set group =>   4
Atom  65H    basis set group =>   4
Atom  66H    basis set group =>   4
Atom  67H    basis set group =>   4
Atom  68H    basis set group =>   4
Atom  69H    basis set group =>   4
Atom  70H    basis set group =>   4
Atom  71H    basis set group =>   4
Atom  72H    basis set group =>   4
Atom  73H    basis set group =>   4
Atom  74H    basis set group =>   4
Atom  75H    basis set group =>   4
Atom  76H    basis set group =>   4
Atom  77H    basis set group =>   4
Atom  78H    basis set group =>   4
Atom  79H    basis set group =>   4
Atom  80H    basis set group =>   4
Atom  81H    basis set group =>   4
Atom  82H    basis set group =>   4
Atom  83H    basis set group =>   4
Atom  84H    basis set group =>   4
Atom  85H    basis set group =>   4
Atom  86H    basis set group =>   4
Atom  87H    basis set group =>   4
Atom  88H    basis set group =>   4
Atom  89H    basis set group =>   4
Atom  90H    basis set group =>   4
Atom  91H    basis set group =>   4
Atom  92H    basis set group =>   4
Atom  93H    basis set group =>   4
Atom  94H    basis set group =>   4
Atom  95H    basis set group =>   4
Atom  96H    basis set group =>   4
Atom  97H    basis set group =>   4
Atom  98H    basis set group =>   4
Atom  99H    basis set group =>   4
Atom 100H    basis set group =>   4
Atom 101H    basis set group =>   4
Atom 102H    basis set group =>   4
Atom 103H    basis set group =>   4
Atom 104H    basis set group =>   4
Atom 105H    basis set group =>   4
Atom 106H    basis set group =>   4
Atom 107H    basis set group =>   4
Atom 108H    basis set group =>   4
---------------------------------
AUXILIARY/J BASIS SET INFORMATION
---------------------------------
There are 4 groups of distinct atoms

 Group   1 Type Fe  : 19s5p5d3f3g contracted to 8s5p5d2f3g pattern {121111111/11111/11111/21/111}
 Group   2 Type O   : 12s5p4d2f1g contracted to 6s4p3d1f1g pattern {711111/2111/211/2/1}
 Group   3 Type C   : 12s5p4d2f1g contracted to 6s4p3d1f1g pattern {711111/2111/211/2/1}
 Group   4 Type H   : 5s2p1d contracted to 3s1p1d pattern {311/2/1}

Atom   0Fe   basis set group =>   1
Atom   1O    basis set group =>   2
Atom   2O    basis set group =>   2
Atom   3C    basis set group =>   3
Atom   4C    basis set group =>   3
Atom   5C    basis set group =>   3
Atom   6C    basis set group =>   3
Atom   7C    basis set group =>   3
Atom   8C    basis set group =>   3
Atom   9C    basis set group =>   3
Atom  10C    basis set group =>   3
Atom  11C    basis set group =>   3
Atom  12C    basis set group =>   3
Atom  13C    basis set group =>   3
Atom  14C    basis set group =>   3
Atom  15C    basis set group =>   3
Atom  16C    basis set group =>   3
Atom  17O    basis set group =>   2
Atom  18O    basis set group =>   2
Atom  19C    basis set group =>   3
Atom  20C    basis set group =>   3
Atom  21C    basis set group =>   3
Atom  22C    basis set group =>   3
Atom  23C    basis set group =>   3
Atom  24C    basis set group =>   3
Atom  25C    basis set group =>   3
Atom  26C    basis set group =>   3
Atom  27C    basis set group =>   3
Atom  28C    basis set group =>   3
Atom  29C    basis set group =>   3
Atom  30C    basis set group =>   3
Atom  31C    basis set group =>   3
Atom  32C    basis set group =>   3
Atom  33O    basis set group =>   2
Atom  34O    basis set group =>   2
Atom  35C    basis set group =>   3
Atom  36C    basis set group =>   3
Atom  37C    basis set group =>   3
Atom  38C    basis set group =>   3
Atom  39C    basis set group =>   3
Atom  40C    basis set group =>   3
Atom  41C    basis set group =>   3
Atom  42C    basis set group =>   3
Atom  43C    basis set group =>   3
Atom  44C    basis set group =>   3
Atom  45C    basis set group =>   3
Atom  46C    basis set group =>   3
Atom  47C    basis set group =>   3
Atom  48C    basis set group =>   3
Atom  49H    basis set group =>   4
Atom  50H    basis set group =>   4
Atom  51H    basis set group =>   4
Atom  52H    basis set group =>   4
Atom  53H    basis set group =>   4
Atom  54H    basis set group =>   4
Atom  55H    basis set group =>   4
Atom  56H    basis set group =>   4
Atom  57H    basis set group =>   4
Atom  58H    basis set group =>   4
Atom  59H    basis set group =>   4
Atom  60H    basis set group =>   4
Atom  61H    basis set group =>   4
Atom  62H    basis set group =>   4
Atom  63H    basis set group =>   4
Atom  64H    basis set group =>   4
Atom  65H    basis set group =>   4
Atom  66H    basis set group =>   4
Atom  67H    basis set group =>   4
Atom  68H    basis set group =>   4
Atom  69H    basis set group =>   4
Atom  70H    basis set group =>   4
Atom  71H    basis set group =>   4
Atom  72H    basis set group =>   4
Atom  73H    basis set group =>   4
Atom  74H    basis set group =>   4
Atom  75H    basis set group =>   4
Atom  76H    basis set group =>   4
Atom  77H    basis set group =>   4
Atom  78H    basis set group =>   4
Atom  79H    basis set group =>   4
Atom  80H    basis set group =>   4
Atom  81H    basis set group =>   4
Atom  82H    basis set group =>   4
Atom  83H    basis set group =>   4
Atom  84H    basis set group =>   4
Atom  85H    basis set group =>   4
Atom  86H    basis set group =>   4
Atom  87H    basis set group =>   4
Atom  88H    basis set group =>   4
Atom  89H    basis set group =>   4
Atom  90H    basis set group =>   4
Atom  91H    basis set group =>   4
Atom  92H    basis set group =>   4
Atom  93H    basis set group =>   4
Atom  94H    basis set group =>   4
Atom  95H    basis set group =>   4
Atom  96H    basis set group =>   4
Atom  97H    basis set group =>   4
Atom  98H    basis set group =>   4
Atom  99H    basis set group =>   4
Atom 100H    basis set group =>   4
Atom 101H    basis set group =>   4
Atom 102H    basis set group =>   4
Atom 103H    basis set group =>   4
Atom 104H    basis set group =>   4
Atom 105H    basis set group =>   4
Atom 106H    basis set group =>   4
Atom 107H    basis set group =>   4
Atom 108H    basis set group =>   4
[file orca_main/main_util_tools.cpp, line 715]: Error : multiplicity (6) is even and number of electrons (386) is even -> impossible

