
                                 *****************
                                 * O   R   C   A *
                                 *****************

                                            #,                                       
                                            ###                                      
                                            ####                                     
                                            #####                                    
                                            ######                                   
                                           ########,                                 
                                     ,,################,,,,,                         
                               ,,#################################,,                 
                          ,,##########################################,,             
                       ,#########################################, ''#####,          
                    ,#############################################,,   '####,        
                  ,##################################################,,,,####,       
                ,###########''''           ''''###############################       
              ,#####''   ,,,,##########,,,,          '''####'''          '####       
            ,##' ,,,,###########################,,,                        '##       
           ' ,,###''''                  '''############,,,                           
         ,,##''                                '''############,,,,        ,,,,,,###''
      ,#''                                            '''#######################'''  
     '                                                          ''''####''''         
             ,#######,   #######,   ,#######,      ##                                
            ,#'     '#,  ##    ##  ,#'     '#,    #''#        ,####,   ,####,        
            ##       ##  ##   ,#'  ##            #'  '#       #'       #'  '#        
            ##       ##  #######   ##           ,######,      #####,   #    #        
            '#,     ,#'  ##    ##  '#,     ,#' ,#      #,     #,   #   #,  ,#        
             '#######'   ##     ##  '#######'  #'      '#     '####' # '####'        



                #########################################################
                #                        -***-                          #
                #          Department of theory and spectroscopy        #
                #                                                       #
                #                      Frank Neese                      #
                #                                                       #
                #     Directorship, Architecture, Infrastructure        #
                #                    SHARK, DRIVERS                     #
                #        Core code/Algorithms in most modules           #
                #                                                       #
                #        Max Planck Institute fuer Kohlenforschung      #
                #                Kaiser Wilhelm Platz 1                 #
                #                 D-45470 Muelheim/Ruhr                 #
                #                      Germany                          #
                #                                                       #
                #                  All rights reserved                  #
                #                        -***-                          #
                #########################################################


                         Program Version 6.0.1  -  RELEASE   -


 With contributions from (in alphabetic order):
[Max-Planck-Institut fuer Kohlenforschung]                               
  Daniel Aravena         : Magnetic Suceptibility                        
  Michael Atanasov       : Ab Initio Ligand Field Theory (pilot matlab implementation)
  Alexander A. Auer      : GIAO ZORA, VPT2 properties, NMR spectrum      
  Ute Becker             : All parallelization in ORCA, NUMFREQ, NUMCALC 
  Giovanni Bistoni       : ED, misc. LED, open-shell LED, HFLD           
  Martin Brehm           : Molecular dynamics                            
  Dmytro Bykov           : pre 5.0 version of the SCF Hessian            
  Marcos Casanova-Páez   : Triplet and SCS-CIS(D). UHF-(DLPNO)-IP/EA/STEOM-CCSD. UHF-CVS-IP/STEOM-CCSD   
  Vijay G. Chilkuri      : MRCI spin determinant printing, contributions to CSF-ICE 
  Pauline Colinet        : FMM embedding                                 
  Dipayan Datta          : RHF DLPNO-CCSD density                        
  Achintya Kumar Dutta   : EOM-CC, STEOM-CC                              
  Nicolas Foglia         : Exact transition moments, OPA infrastructure, MCD improvements    
  Dmitry Ganyushin       : Spin-Orbit,Spin-Spin,Magnetic field MRCI      
  Miquel Garcia-Rates    : C-PCM and meta-GGA Hessian, CCSD/C-PCM, Gaussian charge scheme 
  Tiago L. C. Gouveia    : GS-ROHF, GS-ROCIS                             
  Yang Guo               : DLPNO-NEVPT2, F12-NEVPT2, CIM, IAO-localization        
  Andreas Hansen         : Spin unrestricted coupled pair/coupled cluster methods 
  Ingolf Harden          : AUTO-CI MPn and infrastructure                
  Benjamin Helmich-Paris : MC-RPA, TRAH-(SCF,CASSCF), AVAS, COSX integrals, SCF dyn. polar. 
  Lee Huntington         : MR-EOM, pCC                                   
  Robert Izsak           : Overlap fitted RIJCOSX, COSX-SCS-MP3, EOM     
  Riya Kayal             : Wick's Theorem for AUTO-CI, AUTO-CI UHF-CCSDT 
  Emily Kempfer          : AUTO-CI, RHF CISDT and CCSDT                  
  Christian Kollmar      : KDIIS, OOCD, Brueckner-CCSD(T), CCSD density, CASPT2, CASPT2-K, improved NEVPT2 
  Axel Koslowski         : Symmetry handling                             
  Simone Kossmann        : meta-GGA functionals, TD-DFT gradient, OOMP2, (MP2 Hessian; deprecated post 5.0) 
  Lucas Lang             : DCDCAS                                        
  Marvin Lechner         : AUTO-CI (C++ implementation), FIC-MRCC        
  Spencer Leger          : CASSCF response                               
  Dagmar Lenk            : GEPOL surface, SMD, ORCA-2-JSON               
  Dimitrios Liakos       : Extrapolation schemes; Compound Job, initial MDCI parallelization 
  Dimitrios Manganas     : Further ROCIS development; embedding schemes. LFT, Crystal Embedding 
  Dimitrios Pantazis     : SARC Basis sets                               
  Anastasios Papadopoulos: AUTO-CI, single reference methods and gradients 
  Taras Petrenko         : pre 6.0 DFT Hessian and TD-DFT gradient, (ASA, deprecated), ECA, 1-Electron XAS/XES, NRVS 
  Peter Pinski           : DLPNO-MP2, DLPNO-MP2 Gradient                 
  Christoph Reimann      : Effective Core Potentials                     
  Marius Retegan         : Local ZFS, SOC                                
  Christoph Riplinger    : Optimizer, TS searches, QM/MM, DLPNO-CCSD(T), (RO)-DLPNO pert. Triples 
  Michael Roemelt        : Original ROCIS implementation                 
  Masaaki Saitow         : Open-shell DLPNO-CCSD energy and density      
  Barbara Sandhoefer     : DKH picture change effects                    
  Kantharuban Sivalingam : CASSCF convergence/infrastructure, NEVPT2 and variants, FIC-MRCI 
  Bernardo de Souza      : ESD, SOC TD-DFT                               
  Georgi L. Stoychev     : AutoAux, RI-MP2 NMR, DLPNO-MP2 response, X2C  
  Van Anh Tran           : RI-MP2 g-tensors                              
  Willem Van den Heuvel  : Paramagnetic NMR                              
  Zikuan Wang            : NOTCH, Electric field optimization            
  Frank Wennmohs         : Technical directorship and infrastructure     
  Hang Xu                : AUTO-CI-Response properties                   
                                                                         
[FACCTs GmbH]                                                            
  Markus Bursch, Miquel Garcia-Rates, Christoph Riplinger, Bernardo de Souza, Georgi L. Stoychev 
                                                                 
  APM, Basis sets (HGBS, AHGBS, def-TZVP (Ac-Lr), def2-XVPD (La-Lu)), CI-OPT, improved COSX, DLPNO-Multilevel,           
  DOCKER, DRACO, updates on ESD, GOAT, IRC, LR-CPCM, MBIS, meta-GGA TD-DFT gradient, ML-optimized integration grids, 
  MM, NACMEs, nearIR, NEB, NEB-TS, NL-DFT gradient (VV10), 2- and 3-layer-ONIOM, interface openCOSMO-RS, QMMM,   
  Crystal-QMMM, SF, symmetry and pop. for TD-DFT, r2SCAN hybrids, SOLVATOR                                   
                                                                         
[Other institutions]                                                     
  V. Asgeirsson          : NEB                                           
  Christoph Bannwarth    : sTDA-DFT, sTD-DFT, PBEh-3c, B97-3c, D3        
  Sebastian Ehlert       : rSCAN, r2SCAN, r2SCAN-3c, D4, dhf basis sets  
  Marvin Friede          : D4 for Fr, Ra, Ac-Lr                          
  Lars Goerigk           : TD-DFT with DH, B97 family of functionals     
  Stefan Grimme          : VdW corrections, initial TS optimization, DFT functionals, gCP, sTDA/sTD-DF 
  Waldemar Hujo          : DFT-NL                                        
  H. Jonsson             : NEB                                           
  Holger Kruse           : gCP                                           
  Marcel Mueller         : wB97X-3c, vDZP basis set                      
  Hagen Neugebauer       : wr2SCAN                                       
  Tobias Risthaus        : range-separated hybrid DFT                    
  Lukas Wittmann         : regularized MP2, r2SCAN double-hybrids, wr2SCAN        
                                                                         
We gratefully acknowledge several colleagues who have allowed us to      
interface, adapt or use parts of their codes:                            
  Ed Valeev, F. Pavosevic, A. Kumar             : LibInt (2-el integral package), F12 methods 
  Garnet Chan, S. Sharma, J. Yang, R. Olivares  : DMRG                   
  Ulf Ekstrom                                   : XCFun DFT Library      
  Mihaly Kallay                                 : mrcc  (arbitrary order and MRCC methods)
  Frank Weinhold                                : gennbo (NPA and NBO analysis)           
  Simon Mueller                                 : openCOSMO-RS                            
  Christopher J. Cramer and Donald G. Truhlar   : smd solvation model                     
  S Lehtola, MJT Oliveira, MAL Marques          : LibXC Library                           
  Liviu Ungur et al                             : ANISO software                          


 Your calculation uses the libint2 library for the computation of 2-el integrals
 For citations please refer to: http://libint.valeyev.net

 Your ORCA version has been built with support for libXC version: 6.2.2
 For citations please refer to: https://libxc.gitlab.io

 This ORCA versions uses:
   CBLAS   interface :  Fast vector & matrix operations
   LAPACKE interface :  Fast linear algebra routines
   SCALAPACK package :  Parallel linear algebra routines
   Shared memory     :  Shared parallel matrices
   BLAS/LAPACK       :  OpenBLAS 0.3.27  USE64BITINT DYNAMIC_ARCH NO_AFFINITY Cooperlake SINGLE_THREADED
        Core in use  :  Cooperlake
   Copyright (c) 2011-2014, The OpenBLAS Project


NOTE: MaxCore=3600 MB was set to SCF,MP2,MDCI,CIPSI,MRCI and CIS
      => If you want to overwrite this, your respective input block should be placed after the MaxCore statement
Warning: RI is on but no J-basis has been assigned. Assigning Def2/J (nothing to worry about!)
================================================================================

----- Orbital basis set information -----
Your calculation utilizes the basis: def2-TZVP
   F. Weigend and R. Ahlrichs, Phys. Chem. Chem. Phys. 7, 3297 (2005).

----- AuxJ basis set information -----
Your calculation utilizes the auxiliary basis: def2/J
   F. Weigend, Phys. Chem. Chem. Phys. 8, 1057 (2006).

================================================================================
                                        WARNINGS
                       Please study these warnings very carefully!
================================================================================


WARNING: Geometry Optimization
  ===> : Switching off AutoStart
         For restart on a previous wavefunction, please use MOREAD

================================================================================
                                       INPUT FILE
================================================================================
NAME = BOYDOI-S5.inp
|  1> ! PBE0 def2-TZVP  Opt Freq DEFGRID3
|  2> 
|  3> %maxcore 3600
|  4> 
|  5> %pal
|  6>     nprocs 16
|  7> end
|  8> 
|  9> *xyz 0 1
| 10> Fe 0.0 0.0 0.0
| 11> S -0.9416 3.5722 3.1533
| 12> O 6.8224 1.3989 -1.5897
| 13> O -0.8186 1.1657 -1.6243
| 14> N -0.3869 1.5799 1.3323
| 15> N 2.0471 0.8299 -0.3589
| 16> C -0.6147 2.4016 2.0804
| 17> C 2.6442 1.5717 0.5635
| 18> C 3.952 1.994 0.4773
| 19> C 4.7098 1.6027 -0.6097
| 20> C 4.0904 0.8413 -1.5843
| 21> C 2.7758 0.4908 -1.4325
| 22> C 6.1588 1.9418 -0.7384
| 23> C 6.7515 2.9592 0.1913
| 24> H 2.1136 1.8114 1.3219
| 25> H 4.2783 2.4342 1.1501
| 26> H 4.4756 0.5837 -2.3263
| 27> H 2.3545 -0.0897 -2.104
| 28> H 6.7087 2.6461 1.0973
| 29> H 7.655 3.1336 -0.0735
| 30> H 6.3616 3.7304 0.0802
| 31> H -1.6466 1.3402 -1.6753
| 32> H -0.4474 1.8684 -1.8508
| 33> O 0.8186 -1.1657 1.6243
| 34> N 0.3869 -1.5799 -1.3323
| 35> N -2.0471 -0.8299 0.3589
| 36> H 1.6466 -1.3402 1.6753
| 37> H 0.4474 -1.8684 1.8508
| 38> C 0.6147 -2.4016 -2.0804
| 39> C -2.6442 -1.5717 -0.5635
| 40> C -2.7758 -0.4908 1.4325
| 41> S 0.9416 -3.5722 -3.1533
| 42> C -3.952 -1.994 -0.4773
| 43> H -2.1136 -1.8114 -1.3219
| 44> C -4.0904 -0.8413 1.5843
| 45> H -2.3545 0.0897 2.104
| 46> C -4.7098 -1.6027 0.6097
| 47> H -4.2783 -2.4342 -1.1501
| 48> H -4.4756 -0.5837 2.3263
| 49> C -6.1588 -1.9418 0.7384
| 50> O -6.8224 -1.3989 1.5897
| 51> C -6.7515 -2.9592 -0.1913
| 52> H -6.7087 -2.6461 -1.0973
| 53> H -7.655 -3.1336 0.0735
| 54> H -6.3616 -3.7304 -0.0802
| 55> *
| 56> 
| 57>                          ****END OF INPUT****
================================================================================

                       *****************************
                       * Geometry Optimization Run *
                       *****************************

Geometry optimization settings:
Update method            Update   .... BFGS
Choice of coordinates    CoordSys .... (2022) Redundant Internals
Initial Hessian          InHess   .... Almloef's Model
Max. no of cycles        MaxIter  .... 135

Convergence Tolerances:
Energy Change            TolE     ....  5.0000e-06 Eh
Max. Gradient            TolMAXG  ....  3.0000e-04 Eh/bohr
RMS Gradient             TolRMSG  ....  1.0000e-04 Eh/bohr
Max. Displacement        TolMAXD  ....  4.0000e-03 bohr
RMS Displacement         TolRMSD  ....  2.0000e-03 bohr
Strict Convergence                .... False

------------------------------------------------------------------------------
                        ORCA OPTIMIZATION COORDINATE SETUP
------------------------------------------------------------------------------

The optimization will be done in redundant internal coordinates (2022)
Making redundant internal coordinates   ...  (2022 redundants) done
Evaluating the initial hessian          ...  (Almloef) done
Evaluating the coordinates              ...  done
Calculating the B-matrix                .... done
Calculating the G-matrix                .... done
Diagonalizing the G-matrix              .... done
Small eigenvalue found = 2.197e-03
Small eigenvalue found = 4.504e-03
Small eigenvalue found = 8.182e-03
Small eigenvalue found = 1.752e-02
Small eigenvalue found = 1.765e-02
Small eigenvalue found = 2.370e-02
Small eigenvalue found = 2.465e-02
The first mode is                       ....  103
The number of degrees of freedom        ....  129

    -----------------------------------------------------------------
                    Redundant Internal Coordinates


    -----------------------------------------------------------------
         Definition                    Initial Value    Approx d2E/dq
    -----------------------------------------------------------------
      1. B(O   3,Fe  0)                  2.1604         0.334104   
      2. B(N   4,Fe  0)                  2.1026         0.413182   
      3. B(N   5,Fe  0)                  2.2379         0.251329   
      4. B(C   6,S   1)                  1.6212         0.720518   
      5. B(C   6,N   4)                  1.1343         1.431389   
      6. B(C   7,N   5)                  1.3258         0.708565   
      7. B(C   8,C   7)                  1.3770         0.655377   
      8. B(C   9,C   8)                  1.3816         0.644269   
      9. B(C  10,C   9)                  1.3832         0.640610   
     10. B(C  11,C  10)                  1.3690         0.674991   
     11. B(C  11,N   5)                  1.3411         0.669663   
     12. B(C  12,C   9)                  1.4937         0.426859   
     13. B(C  12,O   2)                  1.2082         1.091138   
     14. B(C  13,C  12)                  1.5002         0.416724   
     15. B(H  14,C   7)                  0.9561         0.588874   
     16. B(H  15,C   8)                  0.8677         0.814863   
     17. B(H  16,C  10)                  0.8748         0.793848   
     18. B(H  17,C  11)                  0.9825         0.534401   
     19. B(H  18,C  13)                  0.9595         0.581538   
     20. B(H  19,C  13)                  0.9575         0.585848   
     21. B(H  20,C  13)                  0.8713         0.804248   
     22. B(H  21,O   3)                  0.8477         0.785410   
     23. B(H  22,O   3)                  0.8264         0.849519   
     24. B(O  23,Fe  0)                  2.1604         0.334104   
     25. B(N  24,Fe  0)                  2.1026         0.413182   
     26. B(N  25,Fe  0)                  2.2379         0.251329   
     27. B(H  26,O  23)                  0.8477         0.785410   
     28. B(H  27,O  23)                  0.8264         0.849519   
     29. B(C  28,N  24)                  1.1343         1.431389   
     30. B(C  29,N  25)                  1.3258         0.708565   
     31. B(C  30,N  25)                  1.3411         0.669663   
     32. B(S  31,C  28)                  1.6212         0.720518   
     33. B(C  32,C  29)                  1.3770         0.655377   
     34. B(H  33,C  29)                  0.9561         0.588874   
     35. B(C  34,C  30)                  1.3690         0.674991   
     36. B(H  35,C  30)                  0.9825         0.534401   
     37. B(C  36,C  34)                  1.3832         0.640610   
     38. B(C  36,C  32)                  1.3816         0.644269   
     39. B(H  37,C  32)                  0.8677         0.814863   
     40. B(H  38,C  34)                  0.8748         0.793848   
     41. B(C  39,C  36)                  1.4937         0.426859   
     42. B(O  40,C  39)                  1.2082         1.091138   
     43. B(C  41,C  39)                  1.5002         0.416724   
     44. B(H  42,C  41)                  0.9595         0.581538   
     45. B(H  43,C  41)                  0.9575         0.585848   
     46. B(H  44,C  41)                  0.8713         0.804248   
     47. A(N   5,Fe  0,N  24)           90.4989         0.427285   
     48. A(O   3,Fe  0,N   5)           91.4860         0.411404   
     49. A(O   3,Fe  0,N   4)           90.0713         0.449800   
     50. A(O  23,Fe  0,N  24)           90.0713         0.449800   
     51. A(O   3,Fe  0,N  25)           88.5140         0.411404   
     52. A(O   3,Fe  0,N  24)           89.9287         0.449800   
     53. A(N   5,Fe  0,O  23)           88.5140         0.411404   
     54. A(N  24,Fe  0,N  25)           89.5011         0.427285   
     55. A(N   4,Fe  0,N   5)           89.5011         0.427285   
     56. A(O  23,Fe  0,N  25)           91.4860         0.411404   
     57. A(N   4,Fe  0,O  23)           89.9287         0.449800   
     58. A(N   4,Fe  0,N  25)           90.4989         0.427285   
     59. A(H  21,O   3,H  22)          104.3127         0.374658   
     60. A(Fe  0,O   3,H  22)          119.6500         0.405207   
     61. A(Fe  0,O   3,H  21)          121.7624         0.399641   
     62. L(Fe  0,N   4,C   6,N  25, 2) 177.8159         0.522192   
     63. L(Fe  0,N   4,C   6,N  25, 1) 178.2860         0.522192   
     64. A(C   7,N   5,C  11)          116.9831         0.444979   
     65. A(Fe  0,N   5,C  11)          122.1166         0.414946   
     66. A(Fe  0,N   5,C   7)          120.5243         0.419138   
     67. L(S   1,C   6,N   4,Fe  0, 2) 181.1255         0.546923   
     68. L(S   1,C   6,N   4,Fe  0, 1) 179.8097         0.546923   
     69. A(C   8,C   7,H  14)          119.9891         0.387713   
     70. A(N   5,C   7,H  14)          116.2451         0.390534   
     71. A(N   5,C   7,C   8)          123.7658         0.446185   
     72. A(C   9,C   8,H  15)          123.1922         0.409259   
     73. A(C   7,C   8,H  15)          117.6585         0.410501   
     74. A(C   7,C   8,C   9)          118.9018         0.441477   
     75. A(C   8,C   9,C  10)          117.6862         0.439664   
     76. A(C  10,C   9,C  12)          119.9112         0.408467   
     77. A(C   8,C   9,C  12)          122.3814         0.408879   
     78. A(C   9,C  10,C  11)          119.5265         0.443381   
     79. A(C  11,C  10,H  16)          116.1993         0.410745   
     80. A(C   9,C  10,H  16)          124.2317         0.406961   
     81. A(N   5,C  11,C  10)          123.0795         0.444011   
     82. A(C  10,C  11,H  17)          119.1595         0.383179   
     83. A(N   5,C  11,H  17)          117.6137         0.380236   
     84. A(C   9,C  12,C  13)          118.9342         0.378840   
     85. A(O   2,C  12,C  13)          121.6255         0.444487   
     86. A(O   2,C  12,C   9)          119.4390         0.446426   
     87. A(H  18,C  13,H  19)          111.2624         0.340165   
     88. A(C  12,C  13,H  19)          108.9608         0.358302   
     89. A(C  12,C  13,H  18)          110.2562         0.357853   
     90. A(H  19,C  13,H  20)          103.0487         0.359290   
     91. A(H  18,C  13,H  20)          112.9089         0.358838   
     92. A(C  12,C  13,H  20)          110.1481         0.378325   
     93. A(H  26,O  23,H  27)          104.3127         0.374658   
     94. A(Fe  0,O  23,H  27)          119.6500         0.405207   
     95. A(Fe  0,O  23,H  26)          121.7624         0.399641   
     96. L(Fe  0,N  24,C  28,N   5, 2) 182.1841         0.522192   
     97. L(Fe  0,N  24,C  28,N   5, 1) 178.2860         0.522192   
     98. A(C  29,N  25,C  30)          116.9831         0.444979   
     99. A(Fe  0,N  25,C  30)          122.1166         0.414946   
    100. A(Fe  0,N  25,C  29)          120.5243         0.419138   
    101. L(N  24,C  28,S  31,Fe  0, 2) 181.1255         0.546923   
    102. L(N  24,C  28,S  31,Fe  0, 1) 179.8097         0.546923   
    103. A(C  32,C  29,H  33)          119.9891         0.387713   
    104. A(N  25,C  29,H  33)          116.2451         0.390534   
    105. A(N  25,C  29,C  32)          123.7658         0.446185   
    106. A(C  34,C  30,H  35)          119.1595         0.383179   
    107. A(N  25,C  30,H  35)          117.6137         0.380236   
    108. A(N  25,C  30,C  34)          123.0795         0.444011   
    109. A(C  29,C  32,C  36)          118.9018         0.441477   
    110. A(C  36,C  32,H  37)          123.1922         0.409259   
    111. A(C  29,C  32,H  37)          117.6585         0.410501   
    112. A(C  36,C  34,H  38)          124.2317         0.406961   
    113. A(C  30,C  34,H  38)          116.1993         0.410745   
    114. A(C  30,C  34,C  36)          119.5265         0.443381   
    115. A(C  34,C  36,C  39)          119.9112         0.408467   
    116. A(C  32,C  36,C  39)          122.3814         0.408879   
    117. A(C  32,C  36,C  34)          117.6862         0.439664   
    118. A(O  40,C  39,C  41)          121.6255         0.444487   
    119. A(C  36,C  39,C  41)          118.9342         0.378840   
    120. A(C  36,C  39,O  40)          119.4390         0.446426   
    121. A(H  43,C  41,H  44)          103.0487         0.359290   
    122. A(H  42,C  41,H  44)          112.9089         0.358838   
    123. A(C  39,C  41,H  44)          110.1481         0.378325   
    124. A(H  42,C  41,H  43)          111.2624         0.340165   
    125. A(C  39,C  41,H  43)          108.9608         0.358302   
    126. A(C  39,C  41,H  42)          110.2562         0.357853   
    127. D(H  22,O   3,Fe  0,N  24)   -116.1667         0.002091   
    128. D(H  21,O   3,Fe  0,N  24)    110.4411         0.002091   
    129. D(H  21,O   3,Fe  0,N   4)    -69.5589         0.002091   
    130. D(H  21,O   3,Fe  0,N  25)     20.9383         0.002091   
    131. D(H  21,O   3,Fe  0,N   5)   -159.0617         0.002091   
    132. D(H  22,O   3,Fe  0,N   4)     63.8333         0.002091   
    133. D(H  22,O   3,Fe  0,N   5)    -25.6695         0.002091   
    134. D(H  22,O   3,Fe  0,N  25)    154.3305         0.002091   
    135. D(C  11,N   5,Fe  0,N   4)   -161.2231         0.001838   
    136. D(C   7,N   5,Fe  0,O  23)    -63.9120         0.001838   
    137. D(C   7,N   5,Fe  0,N   4)     26.0297         0.001838   
    138. D(C   7,N   5,Fe  0,O   3)    116.0880         0.001838   
    139. D(C  11,N   5,Fe  0,O  23)    108.8353         0.001838   
    140. D(C   7,N   5,Fe  0,N  24)   -153.9703         0.001838   
    141. D(C  11,N   5,Fe  0,N  24)     18.7769         0.001838   
    142. D(C  11,N   5,Fe  0,O   3)    -71.1647         0.001838   
    143. D(H  14,C   7,N   5,C  11)    179.6683         0.041650   
    144. D(H  14,C   7,N   5,Fe  0)     -7.2232         0.041650   
    145. D(C   8,C   7,N   5,Fe  0)    172.6709         0.041650   
    146. D(C   8,C   7,N   5,C  11)     -0.4376         0.041650   
    147. D(C   9,C   8,C   7,H  14)    178.1615         0.029941   
    148. D(H  15,C   8,C   7,H  14)      3.6924         0.029941   
    149. D(H  15,C   8,C   7,N   5)   -176.1979         0.029941   
    150. D(C   9,C   8,C   7,N   5)     -1.7288         0.029941   
    151. D(C  12,C   9,C   8,C   7)   -175.9860         0.028865   
    152. D(C  12,C   9,C   8,H  15)     -1.8411         0.028865   
    153. D(C  10,C   9,C   8,H  15)    176.4823         0.028865   
    154. D(C  10,C   9,C   8,C   7)      2.3375         0.028865   
    155. D(H  16,C  10,C   9,C   8)    176.6104         0.028516   
    156. D(C  11,C  10,C   9,C  12)    177.4415         0.028516   
    157. D(C  11,C  10,C   9,C   8)     -0.9252         0.028516   
    158. D(H  16,C  10,C   9,C  12)     -5.0230         0.028516   
    159. D(H  17,C  11,C  10,H  16)      5.4891         0.031900   
    160. D(N   5,C  11,C  10,H  16)   -179.0303         0.031900   
    161. D(N   5,C  11,C  10,C   9)     -1.3010         0.031900   
    162. D(H  17,C  11,N   5,C   7)    177.5227         0.036794   
    163. D(H  17,C  11,N   5,Fe  0)      4.5323         0.036794   
    164. D(H  17,C  11,C  10,C   9)   -176.7816         0.031900   
    165. D(C  10,C  11,N   5,C   7)      1.9766         0.036794   
    166. D(C  10,C  11,N   5,Fe  0)   -171.0138         0.036794   
    167. D(C  13,C  12,C   9,C  10)    169.3768         0.012455   
    168. D(C  13,C  12,C   9,C   8)    -12.3359         0.012455   
    169. D(O   2,C  12,C   9,C  10)    -10.2059         0.012455   
    170. D(O   2,C  12,C   9,C   8)    168.0814         0.012455   
    171. D(H  20,C  13,C  12,O   2)    117.8184         0.012847   
    172. D(H  19,C  13,C  12,C   9)   -174.1100         0.012847   
    173. D(H  19,C  13,C  12,O   2)      5.4633         0.012847   
    174. D(H  18,C  13,C  12,C   9)     63.5114         0.012847   
    175. D(H  18,C  13,C  12,O   2)   -116.9154         0.012847   
    176. D(H  27,O  23,O   3,H  22)    180.0000         0.001500   
    177. D(H  27,O  23,O   3,H  21)     46.6078         0.001500   
    178. D(H  26,O  23,O   3,H  21)    180.0000         0.001500   
    179. D(H  27,O  23,Fe  0,N  25)     25.6695         0.002091   
    180. D(H  27,O  23,Fe  0,N  24)    -63.8333         0.002091   
    181. D(H  27,O  23,Fe  0,N   5)   -154.3305         0.002091   
    182. D(H  27,O  23,Fe  0,N   4)    116.1667         0.002091   
    183. D(H  26,O  23,Fe  0,N  25)    159.0617         0.002091   
    184. D(H  26,O  23,O   3,H  22)    -46.6078         0.001500   
    185. D(H  26,O  23,Fe  0,N  24)     69.5589         0.002091   
    186. D(H  26,O  23,Fe  0,N   5)    -20.9383         0.002091   
    187. D(H  26,O  23,Fe  0,N   4)   -110.4411         0.002091   
    188. D(C  29,N  25,Fe  0,N   4)    153.9703         0.001838   
    189. D(C  29,N  25,Fe  0,O   3)     63.9120         0.001838   
    190. D(C  30,N  25,N   5,C  11)    180.0000         0.001500   
    191. D(C  30,N  25,N   5,C   7)      7.2528         0.001500   
    192. D(C  29,N  25,N   5,C  11)     -7.2528         0.001500   
    193. D(C  29,N  25,N   5,C   7)    180.0000         0.001500   
    194. D(C  30,N  25,Fe  0,N  24)    161.2231         0.001838   
    195. D(C  30,N  25,Fe  0,O  23)     71.1647         0.001838   
    196. D(C  30,N  25,Fe  0,N   4)    -18.7769         0.001838   
    197. D(C  30,N  25,Fe  0,O   3)   -108.8353         0.001838   
    198. D(C  29,N  25,Fe  0,N  24)    -26.0297         0.001838   
    199. D(C  29,N  25,Fe  0,O  23)   -116.0880         0.001838   
    200. D(H  33,C  29,N  25,C  30)   -179.6683         0.041650   
    201. D(H  33,C  29,N  25,Fe  0)      7.2232         0.041650   
    202. D(C  32,C  29,N  25,C  30)      0.4376         0.041650   
    203. D(C  32,C  29,N  25,Fe  0)   -172.6709         0.041650   
    204. D(H  35,C  30,N  25,C  29)   -177.5227         0.036794   
    205. D(H  35,C  30,N  25,Fe  0)     -4.5323         0.036794   
    206. D(C  34,C  30,N  25,C  29)     -1.9766         0.036794   
    207. D(C  34,C  30,N  25,Fe  0)    171.0138         0.036794   
    208. D(H  37,C  32,C  29,H  33)     -3.6924         0.029941   
    209. D(H  37,C  32,C  29,N  25)    176.1979         0.029941   
    210. D(C  36,C  32,C  29,H  33)   -178.1615         0.029941   
    211. D(C  36,C  32,C  29,N  25)      1.7288         0.029941   
    212. D(H  38,C  34,C  30,H  35)     -5.4891         0.031900   
    213. D(H  38,C  34,C  30,N  25)    179.0303         0.031900   
    214. D(C  36,C  34,C  30,H  35)    176.7816         0.031900   
    215. D(C  36,C  34,C  30,N  25)      1.3010         0.031900   
    216. D(C  39,C  36,C  34,H  38)      5.0230         0.028516   
    217. D(C  39,C  36,C  34,C  30)   -177.4415         0.028516   
    218. D(C  32,C  36,C  34,H  38)   -176.6104         0.028516   
    219. D(C  32,C  36,C  34,C  30)      0.9252         0.028516   
    220. D(C  39,C  36,C  32,H  37)      1.8411         0.028865   
    221. D(C  39,C  36,C  32,C  29)    175.9860         0.028865   
    222. D(C  34,C  36,C  32,H  37)   -176.4823         0.028865   
    223. D(C  34,C  36,C  32,C  29)     -2.3375         0.028865   
    224. D(C  41,C  39,C  36,C  34)   -169.3768         0.012455   
    225. D(C  41,C  39,C  36,C  32)     12.3359         0.012455   
    226. D(O  40,C  39,C  36,C  34)     10.2059         0.012455   
    227. D(O  40,C  39,C  36,C  32)   -168.0814         0.012455   
    228. D(H  44,C  41,C  39,C  36)     61.7549         0.012847   
    229. D(H  43,C  41,C  39,O  40)     -5.4633         0.012847   
    230. D(H  43,C  41,C  39,C  36)    174.1100         0.012847   
    231. D(H  42,C  41,C  39,O  40)    116.9154         0.012847   
    232. D(H  42,C  41,C  39,C  36)    -63.5114         0.012847   
    -----------------------------------------------------------------

Number of atoms                         .... 45
Number of degrees of freedom            .... 232


         *************************************************************
         *                GEOMETRY OPTIMIZATION CYCLE   1            *
         *************************************************************
---------------------------------
CARTESIAN COORDINATES (ANGSTROEM)
---------------------------------
  Fe     0.000000    0.000000    0.000000
  S     -0.941600    3.572200    3.153300
  O      6.822400    1.398900   -1.589700
  O     -0.818600    1.165700   -1.624300
  N     -0.386900    1.579900    1.332300
  N      2.047100    0.829900   -0.358900
  C     -0.614700    2.401600    2.080400
  C      2.644200    1.571700    0.563500
  C      3.952000    1.994000    0.477300
  C      4.709800    1.602700   -0.609700
  C      4.090400    0.841300   -1.584300
  C      2.775800    0.490800   -1.432500
  C      6.158800    1.941800   -0.738400
  C      6.751500    2.959200    0.191300
  H      2.113600    1.811400    1.321900
  H      4.278300    2.434200    1.150100
  H      4.475600    0.583700   -2.326300
  H      2.354500   -0.089700   -2.104000
  H      6.708700    2.646100    1.097300
  H      7.655000    3.133600   -0.073500
  H      6.361600    3.730400    0.080200
  H     -1.646600    1.340200   -1.675300
  H     -0.447400    1.868400   -1.850800
  O      0.818600   -1.165700    1.624300
  N      0.386900   -1.579900   -1.332300
  N     -2.047100   -0.829900    0.358900
  H      1.646600   -1.340200    1.675300
  H      0.447400   -1.868400    1.850800
  C      0.614700   -2.401600   -2.080400
  C     -2.644200   -1.571700   -0.563500
  C     -2.775800   -0.490800    1.432500
  S      0.941600   -3.572200   -3.153300
  C     -3.952000   -1.994000   -0.477300
  H     -2.113600   -1.811400   -1.321900
  C     -4.090400   -0.841300    1.584300
  H     -2.354500    0.089700    2.104000
  C     -4.709800   -1.602700    0.609700
  H     -4.278300   -2.434200   -1.150100
  H     -4.475600   -0.583700    2.326300
  C     -6.158800   -1.941800    0.738400
  O     -6.822400   -1.398900    1.589700
  C     -6.751500   -2.959200   -0.191300
  H     -6.708700   -2.646100   -1.097300
  H     -7.655000   -3.133600    0.073500
  H     -6.361600   -3.730400   -0.080200

----------------------------
CARTESIAN COORDINATES (A.U.)
----------------------------
  NO LB      ZA    FRAG     MASS         X           Y           Z
   0 Fe   26.0000    0    55.850    0.000000    0.000000    0.000000
   1 S    16.0000    0    32.060   -1.779366    6.750480    5.958873
   2 O     8.0000    0    15.999   12.892468    2.643538   -3.004098
   3 O     8.0000    0    15.999   -1.546930    2.202854   -3.069482
   4 N     7.0000    0    14.007   -0.731135    2.985578    2.517682
   5 N     7.0000    0    14.007    3.868458    1.568284   -0.678223
   6 C     6.0000    0    12.011   -1.161615    4.538366    3.931386
   7 C     6.0000    0    12.011    4.996814    2.970083    1.064861
   8 C     6.0000    0    12.011    7.468198    3.768114    0.901966
   9 C     6.0000    0    12.011    8.900232    3.028664   -1.152166
  10 C     6.0000    0    12.011    7.729736    1.589827   -2.993893
  11 C     6.0000    0    12.011    5.245502    0.927478   -2.707033
  12 C     6.0000    0    12.011   11.638445    3.669470   -1.395374
  13 C     6.0000    0    12.011   12.758486    5.592078    0.361505
  14 H     1.0000    0     1.008    3.994125    3.423050    2.498029
  15 H     1.0000    0     1.008    8.084815    4.599971    2.173374
  16 H     1.0000    0     1.008    8.457658    1.103033   -4.396070
  17 H     1.0000    0     1.008    4.449360   -0.169508   -3.975984
  18 H     1.0000    0     1.008   12.677606    5.000404    2.073596
  19 H     1.0000    0     1.008   14.465854    5.921646   -0.138895
  20 H     1.0000    0     1.008   12.021682    7.049434    0.151556
  21 H     1.0000    0     1.008   -3.111623    2.532611   -3.165858
  22 H     1.0000    0     1.008   -0.845463    3.530764   -3.497505
  23 O     8.0000    0    15.999    1.546930   -2.202854    3.069482
  24 N     7.0000    0    14.007    0.731135   -2.985578   -2.517682
  25 N     7.0000    0    14.007   -3.868458   -1.568284    0.678223
  26 H     1.0000    0     1.008    3.111623   -2.532611    3.165858
  27 H     1.0000    0     1.008    0.845463   -3.530764    3.497505
  28 C     6.0000    0    12.011    1.161615   -4.538366   -3.931386
  29 C     6.0000    0    12.011   -4.996814   -2.970083   -1.064861
  30 C     6.0000    0    12.011   -5.245502   -0.927478    2.707033
  31 S    16.0000    0    32.060    1.779366   -6.750480   -5.958873
  32 C     6.0000    0    12.011   -7.468198   -3.768114   -0.901966
  33 H     1.0000    0     1.008   -3.994125   -3.423050   -2.498029
  34 C     6.0000    0    12.011   -7.729736   -1.589827    2.993893
  35 H     1.0000    0     1.008   -4.449360    0.169508    3.975984
  36 C     6.0000    0    12.011   -8.900232   -3.028664    1.152166
  37 H     1.0000    0     1.008   -8.084815   -4.599971   -2.173374
  38 H     1.0000    0     1.008   -8.457658   -1.103033    4.396070
  39 C     6.0000    0    12.011  -11.638445   -3.669470    1.395374
  40 O     8.0000    0    15.999  -12.892468   -2.643538    3.004098
  41 C     6.0000    0    12.011  -12.758486   -5.592078   -0.361505
  42 H     1.0000    0     1.008  -12.677606   -5.000404   -2.073596
  43 H     1.0000    0     1.008  -14.465854   -5.921646    0.138895
  44 H     1.0000    0     1.008  -12.021682   -7.049434   -0.151556

--------------------------------
INTERNAL COORDINATES (ANGSTROEM)
--------------------------------
 Fe     0   0   0     0.000000000000     0.00000000     0.00000000
 S      1   0   0     4.857007750663     0.00000000     0.00000000
 O      1   2   0     7.143473179064   100.69622054     0.00000000
 O      1   2   3     2.160396477501    91.02112774   264.61469877
 N      1   2   3     2.102569596946     1.39608463   311.74742328
 N      1   2   3     2.237892229309    90.49919464   356.10992429
 C      5   1   4     1.134344453859   177.65055811   132.41518646
 C      6   1   2     1.325751639637   120.52429285    25.05358641
 C      8   6   1     1.376992581679   123.76575346   172.67089270
 C      9   8   6     1.381645949583   118.90177764   358.27120974
 C     10   9   8     1.383196110463   117.68615047     2.33746823
 C      6   1   2     1.341122462715   122.11662796   197.80079749
 C      3   1   2     1.208228893877    53.60474808     7.46165108
 C     13   3   1     1.500246026490   121.62547042   175.55242893
 H      8   6   1     0.956118721708   116.24505337   352.77679006
 H      9   8   6     0.867702466287   117.65850634   183.80210578
 H     11  10   9     0.874814723241   124.23168854   176.61039042
 H     12   6   1     0.982540681092   117.61374079     4.53230989
 H     14  13   3     0.959530848905   110.25619408   243.08462010
 H     14  13   3     0.957521096373   108.96078205     5.46328256
 H     14  13   3     0.871271863427   110.14809718   117.81839777
 H      4   1   2     0.847723569331   121.76238324   291.46424130
 H      4   1   2     0.826364919391   119.65000878    64.85646358
 O      1   2   3     2.160396477501    88.97887226    84.61469877
 N      1   2   3     2.102569596946   178.60391537   131.74742328
 N      1   2   3     2.237892229309    89.50080536   176.10992429
 H     24   1   2     0.847723569331   121.76238324   248.53575870
 H     24   1   2     0.826364919391   119.65000878   115.14353642
 C     25   1   5     1.134344453859   177.65055811     0.00000000
 C     26   1   2     1.325751639637   120.52429285   154.94641359
 C     26   1   2     1.341122462715   122.11662796   342.19920251
 S     29  25   1     1.621197822599   179.80704240   349.93844896
 C     30  26   1     1.376992581679   123.76575346   187.32910730
 H     30  26   1     0.956118721708   116.24505337     7.22320994
 C     31  26   1     1.368965540107   123.07954354   171.01379471
 H     31  26   1     0.982540681092   117.61374079   355.46769011
 C     33  30  26     1.381645949583   118.90177764     1.72879026
 H     33  30  26     0.867702466287   117.65850634   176.19789422
 H     35  31  26     0.874814723241   116.19931704   179.03032525
 C     37  33  30     1.493704622742   122.38144039   175.98600434
 O     40  37  33     1.208228893877   119.43896638   191.91864302
 C     40  37  33     1.500246026490   118.93420330    12.33588983
 H     42  40  37     0.959530848905   110.25619408   296.48863352
 H     42  40  37     0.957521096373   108.96078205   174.10997106
 H     42  40  37     0.871271863427   110.14809718    61.75485585

---------------------------
INTERNAL COORDINATES (A.U.)
---------------------------
 Fe     0   0   0     0.000000000000     0.00000000     0.00000000
 S      1   0   0     9.178414479086     0.00000000     0.00000000
 O      1   2   0    13.499207953442   100.69622054     0.00000000
 O      1   2   3     4.082557683166    91.02112774   264.61469877
 N      1   2   3     3.973280715736     1.39608463   311.74742328
 N      1   2   3     4.229003430624    90.49919464   356.10992429
 C      5   1   4     2.143600359325   177.65055811   132.41518646
 C      6   1   2     2.505307520511   120.52429285    25.05358641
 C      8   6   1     2.602138867815   123.76575346   172.67089270
 C      9   8   6     2.610932458754   118.90177764   358.27120974
 C     10   9   8     2.613861838280   117.68615047     2.33746823
 C      6   1   2     2.534354166582   122.11662796   197.80079749
 C      3   1   2     2.283221716519    53.60474808     7.46165108
 C     13   3   1     2.835054123570   121.62547042   175.55242893
 H      8   6   1     1.806802535542   116.24505337   352.77679006
 H      9   8   6     1.639720027010   117.65850634   183.80210578
 H     11  10   9     1.653160244848   124.23168854   176.61039042
 H     12   6   1     1.856732802700   117.61374079     4.53230989
 H     14  13   3     1.813250521479   110.25619408   243.08462010
 H     14  13   3     1.809452639598   108.96078205     5.46328256
 H     14  13   3     1.646465210069   110.14809718   117.81839777
 H      4   1   2     1.601965383307   121.76238324   291.46424130
 H      4   1   2     1.561603384329   119.65000878    64.85646358
 O      1   2   3     4.082557683166    88.97887226    84.61469877
 N      1   2   3     3.973280715736   178.60391537   131.74742328
 N      1   2   3     4.229003430624    89.50080536   176.10992429
 H     24   1   2     1.601965383307   121.76238324   248.53575870
 H     24   1   2     1.561603384329   119.65000878   115.14353642
 C     25   1   5     2.143600359325   177.65055811     0.00000000
 C     26   1   2     2.505307520511   120.52429285   154.94641359
 C     26   1   2     2.534354166582   122.11662796   342.19920251
 S     29  25   1     3.063619893622   179.80704240   349.93844896
 C     30  26   1     2.602138867815   123.76575346   187.32910730
 H     30  26   1     1.806802535542   116.24505337     7.22320994
 C     31  26   1     2.586969957578   123.07954354   171.01379471
 H     31  26   1     1.856732802700   117.61374079   355.46769011
 C     33  30  26     2.610932458754   118.90177764     1.72879026
 H     33  30  26     1.639720027010   117.65850634   176.19789422
 H     35  31  26     1.653160244848   116.19931704   179.03032525
 C     37  33  30     2.822692661954   122.38144039   175.98600434
 O     40  37  33     2.283221716519   119.43896638   191.91864302
 C     40  37  33     2.835054123570   118.93420330    12.33588983
 H     42  40  37     1.813250521479   110.25619408   296.48863352
 H     42  40  37     1.809452639598   108.96078205   174.10997106
 H     42  40  37     1.646465210069   110.14809718    61.75485585

---------------------
BASIS SET INFORMATION
---------------------
There are 6 groups of distinct atoms

 Group   1 Type Fe  : 17s11p7d1f contracted to 6s4p4d1f pattern {842111/6311/4111/1}
 Group   2 Type S   : 14s9p3d1f contracted to 5s5p2d1f pattern {73211/51111/21/1}
 Group   3 Type O   : 11s6p2d1f contracted to 5s3p2d1f pattern {62111/411/11/1}
 Group   4 Type N   : 11s6p2d1f contracted to 5s3p2d1f pattern {62111/411/11/1}
 Group   5 Type C   : 11s6p2d1f contracted to 5s3p2d1f pattern {62111/411/11/1}
 Group   6 Type H   : 5s1p contracted to 3s1p pattern {311/1}

Atom   0Fe   basis set group =>   1
Atom   1S    basis set group =>   2
Atom   2O    basis set group =>   3
Atom   3O    basis set group =>   3
Atom   4N    basis set group =>   4
Atom   5N    basis set group =>   4
Atom   6C    basis set group =>   5
Atom   7C    basis set group =>   5
Atom   8C    basis set group =>   5
Atom   9C    basis set group =>   5
Atom  10C    basis set group =>   5
Atom  11C    basis set group =>   5
Atom  12C    basis set group =>   5
Atom  13C    basis set group =>   5
Atom  14H    basis set group =>   6
Atom  15H    basis set group =>   6
Atom  16H    basis set group =>   6
Atom  17H    basis set group =>   6
Atom  18H    basis set group =>   6
Atom  19H    basis set group =>   6
Atom  20H    basis set group =>   6
Atom  21H    basis set group =>   6
Atom  22H    basis set group =>   6
Atom  23O    basis set group =>   3
Atom  24N    basis set group =>   4
Atom  25N    basis set group =>   4
Atom  26H    basis set group =>   6
Atom  27H    basis set group =>   6
Atom  28C    basis set group =>   5
Atom  29C    basis set group =>   5
Atom  30C    basis set group =>   5
Atom  31S    basis set group =>   2
Atom  32C    basis set group =>   5
Atom  33H    basis set group =>   6
Atom  34C    basis set group =>   5
Atom  35H    basis set group =>   6
Atom  36C    basis set group =>   5
Atom  37H    basis set group =>   6
Atom  38H    basis set group =>   6
Atom  39C    basis set group =>   5
Atom  40O    basis set group =>   3
Atom  41C    basis set group =>   5
Atom  42H    basis set group =>   6
Atom  43H    basis set group =>   6
Atom  44H    basis set group =>   6
---------------------------------
AUXILIARY/J BASIS SET INFORMATION
---------------------------------
There are 6 groups of distinct atoms

 Group   1 Type Fe  : 19s5p5d3f3g contracted to 8s5p5d2f3g pattern {121111111/11111/11111/21/111}
 Group   2 Type S   : 14s5p5d2f1g contracted to 8s4p3d1f1g pattern {71111111/2111/311/2/1}
 Group   3 Type O   : 12s5p4d2f1g contracted to 6s4p3d1f1g pattern {711111/2111/211/2/1}
 Group   4 Type N   : 12s5p4d2f1g contracted to 6s4p3d1f1g pattern {711111/2111/211/2/1}
 Group   5 Type C   : 12s5p4d2f1g contracted to 6s4p3d1f1g pattern {711111/2111/211/2/1}
 Group   6 Type H   : 5s2p1d contracted to 3s1p1d pattern {311/2/1}

Atom   0Fe   basis set group =>   1
Atom   1S    basis set group =>   2
Atom   2O    basis set group =>   3
Atom   3O    basis set group =>   3
Atom   4N    basis set group =>   4
Atom   5N    basis set group =>   4
Atom   6C    basis set group =>   5
Atom   7C    basis set group =>   5
Atom   8C    basis set group =>   5
Atom   9C    basis set group =>   5
Atom  10C    basis set group =>   5
Atom  11C    basis set group =>   5
Atom  12C    basis set group =>   5
Atom  13C    basis set group =>   5
Atom  14H    basis set group =>   6
Atom  15H    basis set group =>   6
Atom  16H    basis set group =>   6
Atom  17H    basis set group =>   6
Atom  18H    basis set group =>   6
Atom  19H    basis set group =>   6
Atom  20H    basis set group =>   6
Atom  21H    basis set group =>   6
Atom  22H    basis set group =>   6
Atom  23O    basis set group =>   3
Atom  24N    basis set group =>   4
Atom  25N    basis set group =>   4
Atom  26H    basis set group =>   6
Atom  27H    basis set group =>   6
Atom  28C    basis set group =>   5
Atom  29C    basis set group =>   5
Atom  30C    basis set group =>   5
Atom  31S    basis set group =>   2
Atom  32C    basis set group =>   5
Atom  33H    basis set group =>   6
Atom  34C    basis set group =>   5
Atom  35H    basis set group =>   6
Atom  36C    basis set group =>   5
Atom  37H    basis set group =>   6
Atom  38H    basis set group =>   6
Atom  39C    basis set group =>   5
Atom  40O    basis set group =>   3
Atom  41C    basis set group =>   5
Atom  42H    basis set group =>   6
Atom  43H    basis set group =>   6
Atom  44H    basis set group =>   6


           ************************************************************
           *        Program running with 16 parallel MPI-processes    *
           *              working on a common directory               *
           ************************************************************
------------------------------------------------------------------------------
                             ORCA STARTUP CALCULATIONS
                           -- RI-GTO INTEGRALS CHOSEN --
------------------------------------------------------------------------------
------------------------------------------------------------------------------
                   ___                                                        
                  /   \      - P O W E R E D   B Y -                         
                 /     \                                                     
                 |  |  |   _    _      __       _____    __    __             
                 |  |  |  | |  | |    /  \     |  _  \  |  |  /  |          
                  \  \/   | |  | |   /    \    | | | |  |  | /  /          
                 / \  \   | |__| |  /  /\  \   | |_| |  |  |/  /          
                |  |  |   |  __  | /  /__\  \  |    /   |      \           
                |  |  |   | |  | | |   __   |  |    \   |  |\   \          
                \     /   | |  | | |  |  |  |  | |\  \  |  | \   \       
                 \___/    |_|  |_| |__|  |__|  |_| \__\ |__|  \__/        
                                                                              
                      - O R C A' S   B I G   F R I E N D -                    
                                      &                                       
                       - I N T E G R A L  F E E D E R -                       
                                                                              
 v1 FN, 2020, v2 2021, v3 2022-2024                                           
------------------------------------------------------------------------------


----------------------
SHARK INTEGRAL PACKAGE
----------------------

Number of atoms                             ...     45
Number of basis functions                   ...    971
Number of shells                            ...    377
Maximum angular momentum                    ...      3
Integral batch strategy                     ... SHARK/LIBINT Hybrid
RI-J (if used) integral strategy            ... SPLIT-RIJ (Revised 2003 algorithm where possible)
Printlevel                                  ...      1
Contraction scheme used                     ... SEGMENTED contraction
Prescreening option                         ... SCHWARTZ
   Thresh                                   ... 2.500e-11
   Tcut                                     ... 2.500e-12
   Tpresel                                  ... 2.500e-12 
Coulomb Range Separation                    ... NOT USED
Exchange Range Separation                   ... NOT USED
Multipole approximations                    ... NOT USED
Finite Nucleus Model                        ... NOT USED
CABS basis                                  ... NOT available
Auxiliary Coulomb fitting basis             ... AVAILABLE
   # of basis functions in Aux-J            ...   1565
   # of shells in Aux-J                     ...    507
   Maximum angular momentum in Aux-J        ...      4
Auxiliary J/K fitting basis                 ... NOT available
Auxiliary Correlation fitting basis         ... NOT available
Auxiliary 'external' fitting basis          ... NOT available

Checking pre-screening integrals            ... done (  0.0 sec) Dimension = 377
Check shell pair data                       ... done (  0.0 sec)
Shell pair information
Shell pair cut-off parameter TPreSel        ...   2.5e-12
Total number of shell pairs                 ...     71253
Shell pairs after pre-screening             ...     40732
Total number of primitive shell pairs       ...    230894
Primitive shell pairs kept                  ...     83334
          la=0 lb=0:  10052 shell pairs
          la=1 lb=0:  11804 shell pairs
          la=1 lb=1:   3558 shell pairs
          la=2 lb=0:   5862 shell pairs
          la=2 lb=1:   3524 shell pairs
          la=2 lb=2:    882 shell pairs
          la=3 lb=0:   2556 shell pairs
          la=3 lb=1:   1578 shell pairs
          la=3 lb=2:    750 shell pairs
          la=3 lb=3:    166 shell pairs

Calculating one electron integrals          ... done (  0.0 sec)
done (  0.2 sec)
Calculating Nuclear repulsion               ... done (  0.0 sec) ENN=   3160.897599804986 Eh

Diagonalization of the overlap matrix:
Smallest eigenvalue                        ... 2.652e-05
Time for diagonalization                   ...    0.141 sec
Threshold for overlap eigenvalues          ... 1.000e-07
Number of eigenvalues below threshold      ... 0
Time for construction of square roots      ...    0.105 sec
Total time needed                          ...    0.269 sec

-------------------
DFT GRID GENERATION
-------------------

General Integration Accuracy     IntAcc      ... 4.959
Radial Grid Type                 RadialGrid  ... OptM3 with GC (2021)
Angular Grid (max. ang.)         AngularGrid ... 6 (Lebedev-590)
Angular grid pruning method      GridPruning ... 4 (adaptive)
Weight generation scheme         WeightScheme... mBecke (2022)
Basis function cutoff            BFCut       ... 1.0000e-11
Integration weight cutoff        WCut        ... 1.0000e-14
Partially contracted basis set               ... off
Rotationally invariant grid construction     ... off
Angular grids for H and He will be reduced by one unit
Core-polarized basis detected: some atoms will have their core
                               angular grid increased.

Total number of grid points                  ...   554226
Total number of batches                      ...     8681
Average number of points per batch           ...       63
Average number of grid points per atom       ...    12316

--------------------
COSX GRID GENERATION
--------------------

GRIDX 1
-------
General Integration Accuracy     IntAcc      ... 4.020
Radial Grid Type                 RadialGrid  ... OptM3 with GC (2021)
Angular Grid (max. ang.)         AngularGrid ... 2 (Lebedev-110)
Angular grid pruning method      GridPruning ... 4 (adaptive)
Weight generation scheme         WeightScheme... mBecke (2022)
Basis function cutoff            BFCut       ... 1.0000e-11
Integration weight cutoff        WCut        ... 1.0000e-14
Partially contracted basis set               ... on
Rotationally invariant grid construction     ... off
Angular grids for H and He will be reduced by one unit
Core-polarized basis detected: some atoms will have their core
                               angular grid increased.

Total number of grid points                  ...    64980
Total number of batches                      ...      531
Average number of points per batch           ...      122
Average number of grid points per atom       ...     1444
UseSFitting                                  ... on

GRIDX 2
-------
General Integration Accuracy     IntAcc      ... 4.338
Radial Grid Type                 RadialGrid  ... OptM3 with GC (2021)
Angular Grid (max. ang.)         AngularGrid ... 3 (Lebedev-194)
Angular grid pruning method      GridPruning ... 4 (adaptive)
Weight generation scheme         WeightScheme... mBecke (2022)
Basis function cutoff            BFCut       ... 1.0000e-11
Integration weight cutoff        WCut        ... 1.0000e-14
Partially contracted basis set               ... on
Rotationally invariant grid construction     ... off
Angular grids for H and He will be reduced by one unit
Core-polarized basis detected: some atoms will have their core
                               angular grid increased.

Total number of grid points                  ...   136986
Total number of batches                      ...     1093
Average number of points per batch           ...      125
Average number of grid points per atom       ...     3044
UseSFitting                                  ... on

GRIDX 3
-------
General Integration Accuracy     IntAcc      ... 4.871
Radial Grid Type                 RadialGrid  ... OptM3 with GC (2021)
Angular Grid (max. ang.)         AngularGrid ... 4 (Lebedev-302)
Angular grid pruning method      GridPruning ... 4 (adaptive)
Weight generation scheme         WeightScheme... mBecke (2022)
Basis function cutoff            BFCut       ... 1.0000e-11
Integration weight cutoff        WCut        ... 1.0000e-14
Partially contracted basis set               ... on
Rotationally invariant grid construction     ... off
Angular grids for H and He will be reduced by one unit
Core-polarized basis detected: some atoms will have their core
                               angular grid increased.

Total number of grid points                  ...   254462
Total number of batches                      ...     2006
Average number of points per batch           ...      126
Average number of grid points per atom       ...     5655
UseSFitting                                  ... on
Initializing property integral containers    ... done (  0.0 sec)

SHARK setup successfully completed in   8.4 seconds

Maximum memory used throughout the entire STARTUP-calculation: 162.6 MB


           ************************************************************
           *        Program running with 16 parallel MPI-processes    *
           *              working on a common directory               *
           ************************************************************
-------------------------------------------------------------------------------
                                 ORCA GUESS
                   Start orbitals & Density for SCF / CASSCF
-------------------------------------------------------------------------------

------------
SCF SETTINGS
------------
Hamiltonian:
 Density Functional     Method          .... DFT(GTOs)
 Exchange Functional    Exchange        .... PBE
   PBE kappa parameter   XKappa         ....  0.804000
   PBE mue parameter    XMuePBE         ....  0.219520
 Correlation Functional Correlation     .... PBE
   PBE beta parameter  CBetaPBE         ....  0.066725
 LDA part of GGA corr.  LDAOpt          .... PW91-LDA
 Gradients option       PostSCFGGA      .... off
 Hybrid DFT is turned on
   Fraction HF Exchange ScalHFX         ....  0.250000
   Scaling of DF-GGA-X  ScalDFX         ....  0.750000
   Scaling of DF-GGA-C  ScalDFC         ....  1.000000
   Scaling of DF-LDA-C  ScalLDAC        ....  1.000000
   Perturbative correction              ....  0.000000
   NL short-range parameter             ....  6.900000
 RI-approximation to the Coulomb term is turned on
   Number of AuxJ basis functions       .... 1565
   RIJ-COSX (HFX calculated with COS-X)).... on


General Settings:
 Integral files         IntName         .... BOYDOI-S5
 Hartree-Fock type      HFTyp           .... RHF
 Total Charge           Charge          ....    0
 Multiplicity           Mult            ....    1
 Number of Electrons    NEL             ....  232
 Basis Dimension        Dim             ....  971
 Nuclear Repulsion      ENuc            ....   3160.8975998050 Eh

Convergence Acceleration:
 AO-DIIS                CNVDIIS         .... on
   Start iteration      DIISMaxIt       ....    12
   Startup error        DIISStart       ....  0.200000
   # of expansion vecs  DIISMaxEq       ....     5
   Bias factor          DIISBfac        ....   1.050
   Max. coefficient     DIISMaxC        ....  10.000
 MO-DIIS                CNVKDIIS        .... off
 Trust-Rad. Augm. Hess. CNVTRAH         .... auto
   Auto Start mean grad. ratio tolernc. ....  1.125000
   Auto Start start iteration           ....    50
   Auto Start num. interpolation iter.  ....    10
   Max. Number of Micro iterations      ....    24
   Max. Number of Macro iterations      .... Maxiter - #DIIS iter
   Number of Davidson start vectors     ....     2
   Converg. threshold    (grad. norm)   ....   1.000e-05
   Grad. Scal. Fac. for Micro threshold ....   0.100
   Minimum threshold for Micro iter.    ....   1.000e-02
   NR start threshold (gradient norm)   ....   1.000e-04
   Initial trust radius                 ....   0.400
   Minimum AH scaling param. (alpha)    ....   1.000
   Maximum AH scaling param. (alpha)    .... 1000.000
   Quad. conv. algorithm                .... NR
   White noise on init. David. guess    .... on
   Maximum white noise                  ....   0.010
   Pseudo random numbers                .... off
   Inactive MOs                         .... canonical
   Orbital update algorithm             .... Taylor
   Preconditioner                       .... Diag
   Full preconditioner red. dimension   ....   250
 SOSCF                  CNVSOSCF        .... on
   Start iteration      SOSCFMaxIt      ....   150
   Startup grad/error   SOSCFStart      ....  0.003300
   Hessian update       SOSCFHessUp     .... L-BFGS
 Level Shifting         CNVShift        .... on
   Level shift para.    LevelShift      ....    0.2500
   Turn off err/grad.   ShiftErr        ....    0.0010
 Zerner damping         CNVZerner       .... off
 Static damping         CNVDamp         .... on
   Fraction old density DampFac         ....    0.7000
   Max. Damping (<1)    DampMax         ....    0.9800
   Min. Damping (>=0)   DampMin         ....    0.0000
   Turn off err/grad.   DampErr         ....    0.1000

SCF Procedure:
 Maximum # iterations   MaxIter         ....   125
 SCF integral mode      SCFMode         .... Direct
   Integral package                     .... SHARK and LIBINT hybrid scheme
 Reset frequency        DirectResetFreq ....    20
 Integral Threshold     Thresh          ....  2.500e-11 Eh
 Primitive CutOff       TCut            ....  2.500e-12 Eh

Convergence Tolerance:
 Convergence Check Mode ConvCheckMode   .... Total+1el-Energy
 Convergence forced     ConvForced      .... 0
 Energy Change          TolE            ....  1.000e-08 Eh
 1-El. energy change                    ....  1.000e-05 Eh
 Orbital Gradient       TolG            ....  1.000e-05
 Orbital Rotation angle TolX            ....  1.000e-05
 DIIS Error             TolErr          ....  5.000e-07

------------------------------
INITIAL GUESS: MODEL POTENTIAL
------------------------------
Loading Hartree-Fock densities                     ... done
Calculating cut-offs                               ... done
Initializing the effective Hamiltonian             ... done
Setting up the integral package (SHARK)            ... done
done (   0.3 sec)
Making the grid                                    ... done (   0.3 sec)
Mapping shells                                     ... done
Starting the XC term evaluation                    ... done (   0.1 sec)
  promolecular density results
     # of electrons  =    231.976828433
     EX              =   -250.380997054
     EC              =     -8.247717965
     EX+EC           =   -258.628715019
Transforming the Hamiltonian                       ... done (   0.1 sec)
done (   0.2 sec)
Back transforming the eigenvectors                 ... done (   0.1 sec)
done
                      ------------------
                      INITIAL GUESS DONE (   1.1 sec)
                      ------------------
             **** ENERGY FILE WAS UPDATED (BOYDOI-S5.en.tmp) ****
Finished Guess after   1.5 sec
Maximum memory used throughout the entire GUESS-calculation: 78.2 MB


           ************************************************************
           *        Program running with 16 parallel MPI-processes    *
           *              working on a common directory               *
           ************************************************************

-------------------------------------------------------------------------------------------
                                      ORCA LEAN-SCF
                              memory conserving SCF solver
-------------------------------------------------------------------------------------------

----------------------------------------D-I-I-S--------------------------------------------
Iteration    Energy (Eh)           Delta-E    RMSDP     MaxDP     DIISErr   Damp  Time(sec)
-------------------------------------------------------------------------------------------
               ***  Starting incremental Fock matrix formation  ***
    1    -3197.7831816163575240     0.00e+00  1.26e-03  1.70e-01  2.99e-01  0.700  14.7
Warning: op=0 Small HOMO/LUMO gap (   0.097) - skipping pre-diagonalization
         Will do a full diagonalization
    2    -3198.2490965420470275    -4.66e-01  9.95e-04  1.43e-01  1.31e-01  0.700   7.8
                               ***Turning on AO-DIIS***
    3    -3198.4316915719250574    -1.83e-01  3.87e-04  2.92e-02  5.83e-02  0.700   6.9
    4    -3198.5451769750648054    -1.13e-01  6.70e-04  4.19e-02  3.05e-02  0.000   6.6
    5    -3198.7954868737165270    -2.50e-01  1.97e-04  2.71e-02  8.77e-03  0.000   7.0
    6    -3198.7969044531932923    -1.42e-03  8.61e-05  8.87e-03  1.53e-02  0.000   6.2
    7    -3198.7972750274589089    -3.71e-04  3.38e-05  3.11e-03  1.01e-02  0.000   5.8
                              *** Initializing SOSCF ***
---------------------------------------S-O-S-C-F--------------------------------------
Iteration    Energy (Eh)           Delta-E    RMSDP     MaxDP     MaxGrad    Time(sec)
--------------------------------------------------------------------------------------
    8    -3198.7974835992185945    -2.09e-04  1.71e-05  1.58e-03  1.21e-03     5.7
               *** Restarting incremental Fock matrix formation ***
    9    -3198.7975129528008438    -2.94e-05  1.75e-05  8.74e-04  6.37e-04    14.3
   10    -3198.7975291655816363    -1.62e-05  1.73e-05  1.47e-03  2.81e-04     9.0
   11    -3198.7975282333368341     9.32e-07  1.05e-05  8.47e-04  3.79e-04     8.9
   12    -3198.7975348431250495    -6.61e-06  4.95e-06  5.09e-04  9.93e-05     8.4
   13    -3198.7975339701338271     8.73e-07  3.96e-06  4.87e-04  1.61e-04     7.6
   14    -3198.7975354901950595    -1.52e-06  1.82e-06  1.47e-04  3.96e-05     7.2
   15    -3198.7975354478580812     4.23e-08  1.19e-06  8.21e-05  7.93e-05     6.2
   16    -3198.7975356470328734    -1.99e-07  1.37e-06  1.74e-04  1.88e-05     5.7
   17    -3198.7975356478659705    -8.33e-10  1.13e-06  1.28e-04  1.43e-05     5.4
                 **** Energy Check signals convergence ****

               *****************************************************
               *                     SUCCESS                       *
               *           SCF CONVERGED AFTER  17 CYCLES          *
               *****************************************************

 done (   22.028 sec)
Old exchange energy                            :    -63.599783785 Eh
New exchange energy                            :    -63.599787701 Eh
Exchange energy change after final integration :     -0.000003916 Eh
Total energy after final integration           :  -3198.797539564 Eh
             **** ENERGY FILE WAS UPDATED (BOYDOI-S5.en.tmp) ****

----------------
TOTAL SCF ENERGY
----------------

Total Energy       :      -3198.79753956396098 Eh          -87043.70627 eV

Components:
Nuclear Repulsion  :       3160.89759980498593 Eh           86012.39648 eV
Electronic Energy  :      -6359.69513545285190 Eh         -173056.10264 eV
One Electron Energy:     -10691.25254392333954 Eh         -290923.77200 eV
Two Electron Energy:       4331.55740847048764 Eh          117867.66936 eV

Virial components:
Potential Energy   :      -6395.58588895612957 Eh         -174032.73969 eV
Kinetic Energy     :       3196.78834939216858 Eh           86989.03342 eV
Virial Ratio       :          2.00062850271967

DFT components:
N(Alpha)           :      116.000006676139 electrons
N(Beta)            :      116.000006676139 electrons
N(Total)           :      232.000013352279 electrons
E(X)               :     -190.321394532386 Eh       
E(C)               :       -8.258982438308 Eh       
E(XC)              :     -198.580376970694 Eh       

---------------
SCF CONVERGENCE
---------------

  Last Energy change         ...    8.3310e-10  Tolerance :   1.0000e-08
  Last MAX-Density change    ...    1.2843e-04  Tolerance :   1.0000e-07
  Last RMS-Density change    ...    1.1317e-06  Tolerance :   5.0000e-09
  Last DIIS Error            ...    1.2149e-03  Tolerance :   5.0000e-07
  Last Orbital Gradient      ...    1.4263e-05  Tolerance :   1.0000e-05
  Last Orbital Rotation      ...    1.2456e-04  Tolerance :   1.0000e-05


----------------
ORBITAL ENERGIES
----------------

  NO   OCC          E(Eh)            E(eV) 
   0   2.0000    -256.386442     -6976.6298 
   1   2.0000     -88.954688     -2420.5801 
   2   2.0000     -88.954687     -2420.5801 
   3   2.0000     -30.146349      -820.3239 
   4   2.0000     -25.973449      -706.7735 
   5   2.0000     -25.973154      -706.7654 
   6   2.0000     -25.971848      -706.7299 
   7   2.0000     -19.261008      -524.1187 
   8   2.0000     -19.260989      -524.1182 
   9   2.0000     -19.224047      -523.1129 
  10   2.0000     -19.224046      -523.1129 
  11   2.0000     -14.454425      -393.3249 
  12   2.0000     -14.454422      -393.3248 
  13   2.0000     -14.346329      -390.3834 
  14   2.0000     -14.346321      -390.3832 
  15   2.0000     -10.342039      -281.4212 
  16   2.0000     -10.342039      -281.4212 
  17   2.0000     -10.286869      -279.9199 
  18   2.0000     -10.286868      -279.9199 
  19   2.0000     -10.286459      -279.9088 
  20   2.0000     -10.286457      -279.9087 
  21   2.0000     -10.286003      -279.8964 
  22   2.0000     -10.286001      -279.8963 
  23   2.0000     -10.253716      -279.0178 
  24   2.0000     -10.253715      -279.0178 
  25   2.0000     -10.252177      -278.9759 
  26   2.0000     -10.252175      -278.9759 
  27   2.0000     -10.247815      -278.8572 
  28   2.0000     -10.247814      -278.8572 
  29   2.0000     -10.197058      -277.4761 
  30   2.0000     -10.197058      -277.4761 
  31   2.0000      -7.934345      -215.9045 
  32   2.0000      -7.934344      -215.9045 
  33   2.0000      -5.871531      -159.7725 
  34   2.0000      -5.871530      -159.7725 
  35   2.0000      -5.864896      -159.5919 
  36   2.0000      -5.864896      -159.5919 
  37   2.0000      -5.864756      -159.5881 
  38   2.0000      -5.864756      -159.5881 
  39   2.0000      -3.498515       -95.1994 
  40   2.0000      -2.257030       -61.4169 
  41   2.0000      -2.253608       -61.3238 
  42   2.0000      -2.249767       -61.2193 
  43   2.0000      -1.177248       -32.0345 
  44   2.0000      -1.176627       -32.0176 
  45   2.0000      -1.105942       -30.0942 
  46   2.0000      -1.105942       -30.0942 
  47   2.0000      -1.031082       -28.0572 
  48   2.0000      -1.030719       -28.0473 
  49   2.0000      -0.926300       -25.2059 
  50   2.0000      -0.925826       -25.1930 
  51   2.0000      -0.895064       -24.3559 
  52   2.0000      -0.894939       -24.3525 
  53   2.0000      -0.852423       -23.1956 
  54   2.0000      -0.852275       -23.1916 
  55   2.0000      -0.832254       -22.6468 
  56   2.0000      -0.832207       -22.6455 
  57   2.0000      -0.728214       -19.8157 
  58   2.0000      -0.728000       -19.8099 
  59   2.0000      -0.723225       -19.6799 
  60   2.0000      -0.722633       -19.6638 
  61   2.0000      -0.721385       -19.6299 
  62   2.0000      -0.720157       -19.5965 
  63   2.0000      -0.671326       -18.2677 
  64   2.0000      -0.671092       -18.2613 
  65   2.0000      -0.644027       -17.5249 
  66   2.0000      -0.643534       -17.5114 
  67   2.0000      -0.584900       -15.9159 
  68   2.0000      -0.583609       -15.8808 
  69   2.0000      -0.561283       -15.2733 
  70   2.0000      -0.561037       -15.2666 
  71   2.0000      -0.549707       -14.9583 
  72   2.0000      -0.547364       -14.8945 
  73   2.0000      -0.532953       -14.5024 
  74   2.0000      -0.523689       -14.2503 
  75   2.0000      -0.523585       -14.2475 
  76   2.0000      -0.517179       -14.0731 
  77   2.0000      -0.508135       -13.8271 
  78   2.0000      -0.507345       -13.8056 
  79   2.0000      -0.506924       -13.7941 
  80   2.0000      -0.506720       -13.7886 
  81   2.0000      -0.483478       -13.1561 
  82   2.0000      -0.483143       -13.1470 
  83   2.0000      -0.471386       -12.8271 
  84   2.0000      -0.471226       -12.8227 
  85   2.0000      -0.461420       -12.5559 
  86   2.0000      -0.447947       -12.1893 
  87   2.0000      -0.444591       -12.0979 
  88   2.0000      -0.444064       -12.0836 
  89   2.0000      -0.434940       -11.8353 
  90   2.0000      -0.432903       -11.7799 
  91   2.0000      -0.426886       -11.6162 
  92   2.0000      -0.421054       -11.4575 
  93   2.0000      -0.420820       -11.4511 
  94   2.0000      -0.413507       -11.2521 
  95   2.0000      -0.390463       -10.6250 
  96   2.0000      -0.380620       -10.3572 
  97   2.0000      -0.377308       -10.2671 
  98   2.0000      -0.374621       -10.1940 
  99   2.0000      -0.373483       -10.1630 
 100   2.0000      -0.372524       -10.1369 
 101   2.0000      -0.370355       -10.0779 
 102   2.0000      -0.356818        -9.7095 
 103   2.0000      -0.350093        -9.5265 
 104   2.0000      -0.347558        -9.4575 
 105   2.0000      -0.322715        -8.7815 
 106   2.0000      -0.322394        -8.7728 
 107   2.0000      -0.297565        -8.0972 
 108   2.0000      -0.297338        -8.0910 
 109   2.0000      -0.282063        -7.6753 
 110   2.0000      -0.278674        -7.5831 
 111   2.0000      -0.277880        -7.5615 
 112   2.0000      -0.212229        -5.7751 
 113   2.0000      -0.211374        -5.7518 
 114   2.0000      -0.206757        -5.6261 
 115   2.0000      -0.206068        -5.6074 
 116   0.0000      -0.107382        -2.9220 
 117   0.0000      -0.105505        -2.8709 
 118   0.0000      -0.060408        -1.6438 
 119   0.0000      -0.053056        -1.4437 
 120   0.0000      -0.052844        -1.4380 
 121   0.0000      -0.044169        -1.2019 
 122   0.0000      -0.002603        -0.0708 
 123   0.0000      -0.001584        -0.0431 
 124   0.0000       0.003645         0.0992 
 125   0.0000       0.014908         0.4057 
 126   0.0000       0.039975         1.0878 
*Only the first 10 virtual orbitals were printed.

                    ********************************
                    * MULLIKEN POPULATION ANALYSIS *
                    ********************************

-----------------------
MULLIKEN ATOMIC CHARGES
-----------------------
   0 Fe:    0.343618
   1 S :   -0.367748
   2 O :   -0.270290
   3 O :   -0.430570
   4 N :   -0.141821
   5 N :   -0.147920
   6 C :   -0.047860
   7 C :   -0.048811
   8 C :   -0.133227
   9 C :    0.071474
  10 C :   -0.115101
  11 C :   -0.037272
  12 C :    0.127293
  13 C :   -0.308115
  14 H :    0.190971
  15 H :    0.149831
  16 H :    0.157227
  17 H :    0.186602
  18 H :    0.129551
  19 H :    0.146642
  20 H :    0.145195
  21 H :    0.294246
  22 H :    0.277894
  23 O :   -0.430567
  24 N :   -0.141820
  25 N :   -0.147936
  26 H :    0.294244
  27 H :    0.277889
  28 C :   -0.047856
  29 C :   -0.048830
  30 C :   -0.037217
  31 S :   -0.367747
  32 C :   -0.133224
  33 H :    0.190970
  34 C :   -0.115163
  35 H :    0.186597
  36 C :    0.071516
  37 H :    0.149828
  38 H :    0.157219
  39 C :    0.127324
  40 O :   -0.270291
  41 C :   -0.308142
  42 H :    0.129555
  43 H :    0.146642
  44 H :    0.145200
Sum of atomic charges:   -0.0000000

--------------------------------
MULLIKEN REDUCED ORBITAL CHARGES
--------------------------------
  0 Fes       :     6.527973  s :     6.527973
      pz      :     4.158822  p :    12.500998
      px      :     4.161712
      py      :     4.180464
      dz2     :     1.589357  d :     6.626610
      dxz     :     1.564428
      dyz     :     0.654909
      dx2y2   :     1.414463
      dxy     :     1.403453
      f0      :     0.000072  f :     0.000801
      f+1     :     0.000090
      f-1     :     0.000165
      f+2     :     0.000149
      f-2     :     0.000139
      f+3     :     0.000065
      f-3     :     0.000120

  1 S s       :     5.756385  s :     5.756385
      pz      :     3.432535  p :    10.505605
      px      :     3.690239
      py      :     3.382831
      dz2     :     0.015669  d :     0.095431
      dxz     :     0.010985
      dyz     :     0.039497
      dx2y2   :     0.016300
      dxy     :     0.012981
      f0      :     0.001103  f :     0.010327
      f+1     :     0.000403
      f-1     :     0.002753
      f+2     :     0.002599
      f-2     :     0.001867
      f+3     :     0.000809
      f-3     :     0.000794

  2 O s       :     3.820764  s :     3.820764
      pz      :     1.350932  p :     4.414976
      px      :     1.636227
      py      :     1.427817
      dz2     :     0.009327  d :     0.032721
      dxz     :     0.007092
      dyz     :     0.005914
      dx2y2   :     0.004833
      dxy     :     0.005555
      f0      :     0.000286  f :     0.001830
      f+1     :     0.000378
      f-1     :     0.000171
      f+2     :     0.000327
      f-2     :     0.000318
      f+3     :     0.000196
      f-3     :     0.000153

  3 O s       :     3.655332  s :     3.655332
      pz      :     1.864126  p :     4.756800
      px      :     1.331137
      py      :     1.561538
      dz2     :     0.003945  d :     0.016699
      dxz     :     0.000644
      dyz     :     0.002118
      dx2y2   :     0.005944
      dxy     :     0.004048
      f0      :     0.000306  f :     0.001739
      f+1     :     0.000430
      f-1     :     0.000258
      f+2     :     0.000111
      f-2     :     0.000143
      f+3     :     0.000481
      f-3     :     0.000011

  4 N s       :     3.594905  s :     3.594905
      pz      :     1.153017  p :     3.516711
      px      :     1.258556
      py      :     1.105138
      dz2     :     0.008727  d :     0.027498
      dxz     :     0.005194
      dyz     :     0.003126
      dx2y2   :     0.004460
      dxy     :     0.005990
      f0      :     0.000354  f :     0.002707
      f+1     :     0.000142
      f-1     :     0.000718
      f+2     :     0.000379
      f-2     :     0.000592
      f+3     :     0.000259
      f-3     :     0.000264

  5 N s       :     3.550534  s :     3.550534
      pz      :     1.056149  p :     3.523324
      px      :     1.320525
      py      :     1.146651
      dz2     :     0.018024  d :     0.070124
      dxz     :     0.017002
      dyz     :     0.013349
      dx2y2   :     0.010838
      dxy     :     0.010911
      f0      :     0.000754  f :     0.003938
      f+1     :     0.000583
      f-1     :     0.000682
      f+2     :     0.000791
      f-2     :     0.000641
      f+3     :     0.000242
      f-3     :     0.000245

  6 C s       :     3.127643  s :     3.127643
      pz      :     0.939915  p :     2.739723
      px      :     0.882287
      py      :     0.917521
      dz2     :     0.051391  d :     0.163653
      dxz     :     0.029036
      dyz     :     0.020900
      dx2y2   :     0.027538
      dxy     :     0.034788
      f0      :     0.002208  f :     0.016842
[...]
 94:   1320.03   0.006280   31.74  0.001485  ( 0.030284  0.003749 -0.023525)
 95:   1346.33   0.000000    0.00  0.000000  ( 0.000142  0.000259  0.000043)
 96:   1347.68   0.002811   14.21  0.000651  (-0.010848 -0.022404 -0.005603)
 97:   1384.29   0.037346  188.73  0.008419  ( 0.070387  0.048123  0.033896)
 98:   1384.53   0.000276    1.40  0.000062  ( 0.006023  0.004199  0.002888)
 99:   1454.12   0.000000    0.00  0.000000  ( 0.000080  0.000114  0.000210)
100:   1456.42   0.010772   54.43  0.002308  (-0.014543 -0.016611 -0.042668)
101:   1458.04   0.000045    0.23  0.000010  (-0.002940 -0.000816  0.000480)
102:   1458.17   0.004191   21.18  0.000897  (-0.028739 -0.006356  0.005535)
103:   1466.21   0.001691    8.54  0.000360  (-0.006520  0.016230 -0.007344)
104:   1466.21   0.003672   18.56  0.000782  (-0.009286  0.024047 -0.010819)
105:   1537.22   0.000333    1.68  0.000068  ( 0.006064  0.001112  0.005433)
106:   1538.48   0.000000    0.00  0.000000  ( 0.000046  0.000023  0.000049)
107:   1609.29   0.029574  149.46  0.005735  (-0.064378  0.020269 -0.034344)
108:   1610.67   0.000141    0.71  0.000027  ( 0.004420 -0.001436  0.002398)
109:   1622.97   0.000001    0.00  0.000000  (-0.000183  0.000079  0.000242)
110:   1624.94   0.008877   44.86  0.001705  (-0.030596  0.011873  0.025053)
111:   1677.15   0.001407    7.11  0.000262  ( 0.013878  0.001674 -0.008146)
112:   1677.74   0.000000    0.00  0.000000  ( 0.000061 -0.000002 -0.000014)
113:   1804.73   0.071429  360.97  0.012351  ( 0.071243 -0.006373 -0.085058)
114:   1805.11   0.001630    8.24  0.000282  (-0.010676  0.000783  0.012930)
115:   2166.79   0.406132  2052.43  0.058492  (-0.033428  0.197510  0.135514)
116:   2174.54   0.000005    0.02  0.000001  ( 0.000199 -0.000650 -0.000450)
117:   3056.01   0.000462    2.33  0.000047  ( 0.005709  0.001464 -0.003526)
118:   3056.15   0.000438    2.21  0.000045  (-0.005562 -0.001413  0.003430)
119:   3122.68   0.000484    2.45  0.000048  (-0.002429  0.005754 -0.003062)
120:   3122.88   0.000487    2.46  0.000049  (-0.002434  0.005753 -0.003102)
121:   3179.14   0.002409   12.17  0.000236  ( 0.014204  0.005807 -0.000982)
122:   3179.16   0.000609    3.08  0.000060  ( 0.007146  0.002918 -0.000490)
123:   3214.97   0.000370    1.87  0.000036  ( 0.005292 -0.002658  0.000905)
124:   3215.14   0.000381    1.93  0.000037  ( 0.005372 -0.002698  0.000943)
125:   3228.63   0.000898    4.54  0.000087  (-0.007675 -0.003192  0.004204)
126:   3228.79   0.001248    6.31  0.000121  ( 0.008833  0.003927 -0.005211)
127:   3230.32   0.000743    3.75  0.000072  ( 0.008174  0.000266  0.002204)
128:   3230.52   0.000477    2.41  0.000046  (-0.006438 -0.000015 -0.002146)
129:   3246.02   0.000371    1.87  0.000036  (-0.003404 -0.004901  0.000135)
130:   3246.43   0.000298    1.51  0.000029  ( 0.003121  0.004348 -0.000187)
131:   3757.57   0.025147  127.08  0.002088  ( 0.018759 -0.035442 -0.021918)
132:   3757.65   0.002273   11.48  0.000189  (-0.005651  0.010671  0.006552)
133:   3885.37   0.000017    0.09  0.000001  ( 0.000518  0.000805  0.000686)
134:   3885.87   0.035081  177.29  0.002817  (-0.022419 -0.034749 -0.033275)

* The epsilon (eps) is given for a Dirac delta lineshape.
** The dipole moment derivative (T) already includes vibrational overlap.

The first frequency considered to be a vibration is 6
The total number of vibrations considered is 129


--------------------------
THERMOCHEMISTRY AT 298.15K
--------------------------

Temperature         ...   298.15 K
Pressure            ...     1.00 atm
Total Mass          ...   450.31 AMU
Quasi RRHO          ...     True
Cut-Off Frequency   ...     1.00 cm^-1

Throughout the following assumptions are being made:
  (1) The electronic state is orbitally nondegenerate
  (2) There are no thermally accessible electronically excited states
  (3) Hindered rotations indicated by low frequency modes are not
      treated as such but are treated as vibrations and this may
      cause some error
  (4) All equations used are the standard statistical mechanics
      equations for an ideal gas
  (5) All vibrations are strictly harmonic

freq.      15.20  E(vib)   ...       0.57 
freq.      19.58  E(vib)   ...       0.56 
freq.      20.75  E(vib)   ...       0.56 
freq.      21.60  E(vib)   ...       0.56 
freq.      30.21  E(vib)   ...       0.55 
freq.      33.73  E(vib)   ...       0.55 
freq.      37.61  E(vib)   ...       0.54 
freq.      47.66  E(vib)   ...       0.53 
freq.      54.24  E(vib)   ...       0.52 
freq.      68.12  E(vib)   ...       0.50 
freq.      80.79  E(vib)   ...       0.48 
freq.     112.03  E(vib)   ...       0.45 
freq.     116.44  E(vib)   ...       0.44 
freq.     130.09  E(vib)   ...       0.43 
freq.     145.34  E(vib)   ...       0.41 
freq.     146.32  E(vib)   ...       0.41 
freq.     157.65  E(vib)   ...       0.40 
freq.     160.72  E(vib)   ...       0.39 
freq.     161.10  E(vib)   ...       0.39 
freq.     168.20  E(vib)   ...       0.38 
freq.     177.89  E(vib)   ...       0.37 
freq.     207.43  E(vib)   ...       0.34 
freq.     216.64  E(vib)   ...       0.34 
freq.     219.74  E(vib)   ...       0.33 
freq.     229.00  E(vib)   ...       0.32 
freq.     233.27  E(vib)   ...       0.32 
freq.     233.48  E(vib)   ...       0.32 
freq.     255.91  E(vib)   ...       0.30 
freq.     257.36  E(vib)   ...       0.30 
freq.     272.39  E(vib)   ...       0.29 
freq.     282.40  E(vib)   ...       0.28 
freq.     321.48  E(vib)   ...       0.25 
freq.     333.00  E(vib)   ...       0.24 
freq.     377.16  E(vib)   ...       0.21 
freq.     383.30  E(vib)   ...       0.20 
freq.     387.67  E(vib)   ...       0.20 
freq.     410.55  E(vib)   ...       0.19 
freq.     411.40  E(vib)   ...       0.19 
freq.     415.59  E(vib)   ...       0.18 
freq.     464.25  E(vib)   ...       0.16 
freq.     474.24  E(vib)   ...       0.15 
freq.     475.10  E(vib)   ...       0.15 
freq.     485.71  E(vib)   ...       0.15 
freq.     505.65  E(vib)   ...       0.14 
freq.     512.46  E(vib)   ...       0.13 
freq.     512.50  E(vib)   ...       0.13 
freq.     516.65  E(vib)   ...       0.13 
freq.     557.96  E(vib)   ...       0.12 
freq.     581.10  E(vib)   ...       0.11 
freq.     605.16  E(vib)   ...       0.10 
freq.     606.08  E(vib)   ...       0.10 
freq.     611.22  E(vib)   ...       0.10 
freq.     613.81  E(vib)   ...       0.10 
freq.     633.67  E(vib)   ...       0.09 
freq.     670.58  E(vib)   ...       0.08 
freq.     677.99  E(vib)   ...       0.08 
freq.     684.82  E(vib)   ...       0.07 
freq.     768.73  E(vib)   ...       0.06 
freq.     770.37  E(vib)   ...       0.05 
freq.     771.47  E(vib)   ...       0.05 
freq.     775.10  E(vib)   ...       0.05 
freq.     855.65  E(vib)   ...       0.04 
freq.     859.83  E(vib)   ...       0.04 
freq.     883.94  E(vib)   ...       0.04 
freq.     884.87  E(vib)   ...       0.04 
freq.     901.55  E(vib)   ...       0.03 
freq.     902.00  E(vib)   ...       0.03 
freq.     969.42  E(vib)   ...       0.03 
freq.     969.56  E(vib)   ...       0.03 
freq.    1007.41  E(vib)   ...       0.02 
freq.    1008.51  E(vib)   ...       0.02 
freq.    1029.92  E(vib)   ...       0.02 
freq.    1030.97  E(vib)   ...       0.02 
freq.    1046.88  E(vib)   ...       0.02 
freq.    1046.96  E(vib)   ...       0.02 
freq.    1048.73  E(vib)   ...       0.02 
freq.    1051.85  E(vib)   ...       0.02 
freq.    1088.89  E(vib)   ...       0.02 
freq.    1090.53  E(vib)   ...       0.02 
freq.    1113.18  E(vib)   ...       0.01 
freq.    1113.39  E(vib)   ...       0.01 
freq.    1131.04  E(vib)   ...       0.01 
freq.    1132.94  E(vib)   ...       0.01 
freq.    1238.07  E(vib)   ...       0.01 
freq.    1238.58  E(vib)   ...       0.01 
freq.    1286.92  E(vib)   ...       0.01 
freq.    1288.61  E(vib)   ...       0.01 
freq.    1317.12  E(vib)   ...       0.01 
freq.    1320.03  E(vib)   ...       0.01 
freq.    1346.33  E(vib)   ...       0.01 
freq.    1347.68  E(vib)   ...       0.01 
freq.    1384.29  E(vib)   ...       0.00 
freq.    1384.53  E(vib)   ...       0.00 
freq.    1454.12  E(vib)   ...       0.00 
freq.    1456.42  E(vib)   ...       0.00 
freq.    1458.04  E(vib)   ...       0.00 
freq.    1458.17  E(vib)   ...       0.00 
freq.    1466.21  E(vib)   ...       0.00 
freq.    1466.21  E(vib)   ...       0.00 
freq.    1537.22  E(vib)   ...       0.00 
freq.    1538.48  E(vib)   ...       0.00 
freq.    1609.29  E(vib)   ...       0.00 
freq.    1610.67  E(vib)   ...       0.00 
freq.    1622.97  E(vib)   ...       0.00 
freq.    1624.94  E(vib)   ...       0.00 
freq.    1677.15  E(vib)   ...       0.00 
freq.    1677.74  E(vib)   ...       0.00 
freq.    1804.73  E(vib)   ...       0.00 
freq.    1805.11  E(vib)   ...       0.00 
freq.    2166.79  E(vib)   ...       0.00 
freq.    2174.54  E(vib)   ...       0.00 
freq.    3056.01  E(vib)   ...       0.00 
freq.    3056.15  E(vib)   ...       0.00 
freq.    3122.68  E(vib)   ...       0.00 
freq.    3122.88  E(vib)   ...       0.00 
freq.    3179.14  E(vib)   ...       0.00 
freq.    3179.16  E(vib)   ...       0.00 
freq.    3214.97  E(vib)   ...       0.00 
freq.    3215.14  E(vib)   ...       0.00 
freq.    3228.63  E(vib)   ...       0.00 
freq.    3228.79  E(vib)   ...       0.00 
freq.    3230.32  E(vib)   ...       0.00 
freq.    3230.52  E(vib)   ...       0.00 
freq.    3246.02  E(vib)   ...       0.00 
freq.    3246.43  E(vib)   ...       0.00 
freq.    3757.57  E(vib)   ...       0.00 
freq.    3757.65  E(vib)   ...       0.00 
freq.    3885.37  E(vib)   ...       0.00 
freq.    3885.87  E(vib)   ...       0.00 

------------
INNER ENERGY
------------

The inner energy is: U= E(el) + E(ZPE) + E(vib) + E(rot) + E(trans)
    E(el)   - is the total energy from the electronic structure calculation
              = E(kin-el) + E(nuc-el) + E(el-el) + E(nuc-nuc)
    E(ZPE)  - the the zero temperature vibrational energy from the frequency calculation
    E(vib)  - the the finite temperature correction to E(ZPE) due to population
              of excited vibrational states
    E(rot)  - is the rotational thermal energy
    E(trans)- is the translational thermal energy

Summary of contributions to the inner energy U:
Electronic energy                ...  -3199.30699793 Eh
Zero point energy                ...      0.33124565 Eh     207.86 kcal/mol
Thermal vibrational correction   ...      0.02825403 Eh      17.73 kcal/mol
Thermal rotational correction    ...      0.00141627 Eh       0.89 kcal/mol
Thermal translational correction ...      0.00141627 Eh       0.89 kcal/mol
-----------------------------------------------------------------------
Total thermal energy                  -3198.94466570 Eh


Summary of corrections to the electronic energy:
(perhaps to be used in another calculation)
Total thermal correction                  0.03108658 Eh      19.51 kcal/mol
Non-thermal (ZPE) correction              0.33124565 Eh     207.86 kcal/mol
-----------------------------------------------------------------------
Total correction                          0.36233223 Eh     227.37 kcal/mol


--------
ENTHALPY
--------

The enthalpy is H = U + kB*T
                kB is Boltzmann's constant
Total thermal energy              ...  -3198.94466570 Eh 
Thermal Enthalpy correction       ...      0.00094421 Eh       0.59 kcal/mol
-----------------------------------------------------------------------
Total Enthalpy                    ...  -3198.94372149 Eh


Note: Only C1 symmetry has been detected, increase convergence thresholds 
      if your molecule has a higher symmetry. Symmetry factor of 1.0 is   
      used for the rotational entropy correction. 
 

Note: Rotational entropy computed according to Herzberg 
Infrared and Raman Spectra, Chapter V,1, Van Nostrand Reinhold, 1945 
Point Group:  C1, Symmetry Number:   1  
Rotational constants in cm-1:     0.007722     0.002743     0.002141 

Vibrational entropy computed according to the QRRHO of S. Grimme
Chem.Eur.J. 2012 18 9955 using a reference frequency of 100.0 cm-1


-------
ENTROPY
-------

The entropy contributions are T*S = T*(S(el)+S(vib)+S(rot)+S(trans))
     S(el)   - electronic entropy
     S(vib)  - vibrational entropy
     S(rot)  - rotational entropy
     S(trans)- translational entropy
The entropies will be listed as multiplied by the temperature to get
units of energy

Electronic entropy                ...      0.00000000 Eh      0.00 kcal/mol
Vibrational entropy               ...      0.05227556 Eh     32.80 kcal/mol
Rotational entropy                ...      0.01749350 Eh     10.98 kcal/mol
Translational entropy             ...      0.02100241 Eh     13.18 kcal/mol
-----------------------------------------------------------------------
Final entropy term                ...      0.09077147 Eh     56.96 kcal/mol

In case the symmetry of your molecule has not been determined correctly
or in case you have a reason to use a different symmetry number we print 
out the resulting rotational entropy values for sn=1,12:

 non-linear molecules -----------------------------------
|  sn= 1 | S(rot)=       0.01749350 Eh     10.98 kcal/mol|
|  sn= 2 | S(rot)=       0.01683904 Eh     10.57 kcal/mol|
|  sn= 3 | S(rot)=       0.01645621 Eh     10.33 kcal/mol|
|  sn= 4 | S(rot)=       0.01618459 Eh     10.16 kcal/mol|
|  sn= 5 | S(rot)=       0.01597390 Eh     10.02 kcal/mol|
|  sn= 6 | S(rot)=       0.01580175 Eh      9.92 kcal/mol|
|  sn= 7 | S(rot)=       0.01565621 Eh      9.82 kcal/mol|
|  sn= 8 | S(rot)=       0.01553013 Eh      9.75 kcal/mol|
|  sn= 9 | S(rot)=       0.01541892 Eh      9.68 kcal/mol|
|  sn=10 | S(rot)=       0.01531944 Eh      9.61 kcal/mol|
|  sn=11 | S(rot)=       0.01522945 Eh      9.56 kcal/mol|
|  sn=12 | S(rot)=       0.01514730 Eh      9.51 kcal/mol|
 linear molecules ---------------------------------------
|  Dinfh | S(rot)=       0.01112939 Eh      6.98 kcal/mol|
|  Cinfv | S(rot)=       0.01178385 Eh      7.39 kcal/mol|
 --------------------------------------------------------


-------------------
GIBBS FREE ENERGY
-------------------

The Gibbs free energy is G = H - T*S

Total enthalpy                    ...  -3198.94372149 Eh 
Total entropy correction          ...     -0.09077147 Eh    -56.96 kcal/mol
-----------------------------------------------------------------------
Final Gibbs free energy         ...  -3199.03449297 Eh

For completeness - the Gibbs free energy minus the electronic energy
G-E(el)                           ...      0.27250496 Eh    171.00 kcal/mol


Maximum memory used throughout the entire PROP-calculation: 679.5 MB

--------------------------------
SUGGESTED CITATIONS FOR THIS RUN
--------------------------------

Below you find a list of papers that are relevant to this ORCA run
We neither can nor want to force you to cite these papers, but we appreciate if you do
You receive ORCA, which is the product of decades of hard work by many enthusiastic individuals, for free
The only thing we kindly ask in return is that you cite our papers,
We deeply appreciate it, if you show your appreciation for ORCA by not just citing the generic ORCA reference.

Please note that relegating all ORCA citations to the supporting information does *not* help us.
SI sections are not indexed - citations you put there will not count into any citation statistics
But we need these citations in order to attract the funding resources that allow us to do what we are doing

Therefore, if you are a happy ORCA user, please consider citing a few of the papers listed below in the main body of your paper

In addition to the list printed below, the program has created the file BOYDOI-S5.bibtex that contains the list in bibtex format
You can import this file easily into all common literature databanks and citation aid programs


List of essential papers. We consider these as the minimum necessary citations

  1. Neese,F.
     Software update: the ORCA program system, version 5.0
     WIRES Comput. Molec. Sci., 2022 12(1)e1606
     doi.org/10.1002/wcms.1606

List of papers to cite with high priority. The work reported in these papers was absolutely
necessary for this run to complete.
Our perspective: the developers of density functionals and basis sets usually get cited in chemistry papers
Good! But without the algorithms to do something with them, the functionals or basis sets would not do anything.
Hence, in our opinion, the algorithm design and method developments papers are equally worthy of getting cited

  1. Neese,F.
     An improvement of the resolution of the identity approximation for the formation of the Coulomb matrix
     J. Comp. Chem., 2003 24(14)1740-1747
     doi.org/10.1002/jcc.10318
  2. Neese,F.; Wennmohs,F.; Hansen,A.; Becker,U.
     Efficient, approximate and parallel Hartree-Fock and hybrid DFT calculations. A 'chain-of-spheres' algorithm for the Hartree-Fock exchange
     Chem. Phys., 2009 356(1-3)98-109
     doi.org/10.1016/j.chemphys.2008.10.036
  3. Bykov,D.; Petrenko,T.; Izsak,R.; Kossmann,S.; Becker,U.; Valeev,E.; Neese,F.
     Efficient implementation of the analytic second derivatives of Hartree-Fock and hybrid DFT energies: a detailed analysis of different approximations
     Molec. Phys., 2015 113 1961-1977
     doi.org/10.1080/00268976.2015.1025114
  4. Helmich-Paris,B.; de Souza,B.; Neese,F.; Izsák,R.
     An improved chain of spheres for exchange algorithm
     J. Chem. Phys., 2021 155 104109
     doi.org/doi: 10.1063/5.0058766.
  5. Neese,F.
     The SHARK Integral Generation and Digestion System
     J. Comp. Chem., 2022  1-16
     doi.org/10.1002/jcc.26942

List of suggested additional citations. These are papers that are important in the 'surrounding' of 
of this run, or papers that preceded the highly important papers. If you like your results we are grateful for a citation.

  1. Izsak,R.; Neese,F.
     An overlap fitted chain of spheres exchange method
     J. Chem. Phys., 2011 135 144105
     doi.org/10.1063/1.3646921
  2. Izsak,R.; Hansen,A.; Neese,F.
     The resolution of identity and chain of spheres approximations for the LPNO-CCSD singles Fock term
     Molec. Phys., 2012 110 2413-2417
     doi.org/10.1080/00268976.2012.687466
  3. Neese,F.
     The ORCA program system
     WIRES Comput. Molec. Sci., 2012 2(1)73-78
     doi.org/10.1002/wcms.81
  4. Izsak,R.; Neese,F.; Klopper,W.
     Robust fitting techniques in the chain of spheres approximation to the Fock exchange: The role of the complementary space
     J. Chem. Phys., 2013 139 
     doi.org/10.1063/1.4819264
  5. Neese,F.
     Software update: the ORCA program system, version 4.0
     WIRES Comput. Molec. Sci., 2018 8(1)1-6
     doi.org/10.1002/wcms.1327
  6. Neese,F.; Wennmohs,F.; Becker,U.; Riplinger,C.
     The ORCA quantum chemistry program package
     J. Chem. Phys., 2020 152 Art. No. L224108
     doi.org/10.1063/5.0004608

List of optional additional citations

  1. Neese,F.
     Approximate second-order SCF convergence for spin unrestricted wavefunctions
     Chem. Phys. Lett., 2000 325(1-3)93-98
     doi.org/10.1016/s0009-2614(00)00662-x

Timings for individual modules:

Sum of individual times          ...    11707.334 sec (= 195.122 min)
Startup calculation              ...      415.674 sec (=   6.928 min)   3.6 %
SCF iterations                   ...     6420.720 sec (= 107.012 min)  54.8 %
Property integrals               ...     1224.296 sec (=  20.405 min)  10.5 %
SCF Response                     ...     1491.077 sec (=  24.851 min)  12.7 %
Property calculations            ...      616.881 sec (=  10.281 min)   5.3 %
SCF Gradient evaluation          ...     1537.552 sec (=  25.626 min)  13.1 %
Geometry relaxation              ...        1.133 sec (=   0.019 min)   0.0 %
                             ****ORCA TERMINATED NORMALLY****
TOTAL RUN TIME: 0 days 3 hours 16 minutes 38 seconds 398 msec
