
                                 *****************
                                 * O   R   C   A *
                                 *****************

                                            #,                                       
                                            ###                                      
                                            ####                                     
                                            #####                                    
                                            ######                                   
                                           ########,                                 
                                     ,,################,,,,,                         
                               ,,#################################,,                 
                          ,,##########################################,,             
                       ,#########################################, ''#####,          
                    ,#############################################,,   '####,        
                  ,##################################################,,,,####,       
                ,###########''''           ''''###############################       
              ,#####''   ,,,,##########,,,,          '''####'''          '####       
            ,##' ,,,,###########################,,,                        '##       
           ' ,,###''''                  '''############,,,                           
         ,,##''                                '''############,,,,        ,,,,,,###''
      ,#''                                            '''#######################'''  
     '                                                          ''''####''''         
             ,#######,   #######,   ,#######,      ##                                
            ,#'     '#,  ##    ##  ,#'     '#,    #''#        ,####,   ,####,        
            ##       ##  ##   ,#'  ##            #'  '#       #'       #'  '#        
            ##       ##  #######   ##           ,######,      #####,   #    #        
            '#,     ,#'  ##    ##  '#,     ,#' ,#      #,     #,   #   #,  ,#        
             '#######'   ##     ##  '#######'  #'      '#     '####' # '####'        



                #########################################################
                #                        -***-                          #
                #          Department of theory and spectroscopy        #
                #                                                       #
                #                      Frank Neese                      #
                #                                                       #
                #     Directorship, Architecture, Infrastructure        #
                #                    SHARK, DRIVERS                     #
                #        Core code/Algorithms in most modules           #
                #                                                       #
                #        Max Planck Institute fuer Kohlenforschung      #
                #                Kaiser Wilhelm Platz 1                 #
                #                 D-45470 Muelheim/Ruhr                 #
                #                      Germany                          #
                #                                                       #
                #                  All rights reserved                  #
                #                        -***-                          #
                #########################################################


                         Program Version 6.0.1  -  RELEASE   -


 With contributions from (in alphabetic order):
[Max-Planck-Institut fuer Kohlenforschung]                               
  Daniel Aravena         : Magnetic Suceptibility                        
  Michael Atanasov       : Ab Initio Ligand Field Theory (pilot matlab implementation)
  Alexander A. Auer      : GIAO ZORA, VPT2 properties, NMR spectrum      
  Ute Becker             : All parallelization in ORCA, NUMFREQ, NUMCALC 
  Giovanni Bistoni       : ED, misc. LED, open-shell LED, HFLD           
  Martin Brehm           : Molecular dynamics                            
  Dmytro Bykov           : pre 5.0 version of the SCF Hessian            
  Marcos Casanova-Páez   : Triplet and SCS-CIS(D). UHF-(DLPNO)-IP/EA/STEOM-CCSD. UHF-CVS-IP/STEOM-CCSD   
  Vijay G. Chilkuri      : MRCI spin determinant printing, contributions to CSF-ICE 
  Pauline Colinet        : FMM embedding                                 
  Dipayan Datta          : RHF DLPNO-CCSD density                        
  Achintya Kumar Dutta   : EOM-CC, STEOM-CC                              
  Nicolas Foglia         : Exact transition moments, OPA infrastructure, MCD improvements    
  Dmitry Ganyushin       : Spin-Orbit,Spin-Spin,Magnetic field MRCI      
  Miquel Garcia-Rates    : C-PCM and meta-GGA Hessian, CCSD/C-PCM, Gaussian charge scheme 
  Tiago L. C. Gouveia    : GS-ROHF, GS-ROCIS                             
  Yang Guo               : DLPNO-NEVPT2, F12-NEVPT2, CIM, IAO-localization        
  Andreas Hansen         : Spin unrestricted coupled pair/coupled cluster methods 
  Ingolf Harden          : AUTO-CI MPn and infrastructure                
  Benjamin Helmich-Paris : MC-RPA, TRAH-(SCF,CASSCF), AVAS, COSX integrals, SCF dyn. polar. 
  Lee Huntington         : MR-EOM, pCC                                   
  Robert Izsak           : Overlap fitted RIJCOSX, COSX-SCS-MP3, EOM     
  Riya Kayal             : Wick's Theorem for AUTO-CI, AUTO-CI UHF-CCSDT 
  Emily Kempfer          : AUTO-CI, RHF CISDT and CCSDT                  
  Christian Kollmar      : KDIIS, OOCD, Brueckner-CCSD(T), CCSD density, CASPT2, CASPT2-K, improved NEVPT2 
  Axel Koslowski         : Symmetry handling                             
  Simone Kossmann        : meta-GGA functionals, TD-DFT gradient, OOMP2, (MP2 Hessian; deprecated post 5.0) 
  Lucas Lang             : DCDCAS                                        
  Marvin Lechner         : AUTO-CI (C++ implementation), FIC-MRCC        
  Spencer Leger          : CASSCF response                               
  Dagmar Lenk            : GEPOL surface, SMD, ORCA-2-JSON               
  Dimitrios Liakos       : Extrapolation schemes; Compound Job, initial MDCI parallelization 
  Dimitrios Manganas     : Further ROCIS development; embedding schemes. LFT, Crystal Embedding 
  Dimitrios Pantazis     : SARC Basis sets                               
  Anastasios Papadopoulos: AUTO-CI, single reference methods and gradients 
  Taras Petrenko         : pre 6.0 DFT Hessian and TD-DFT gradient, (ASA, deprecated), ECA, 1-Electron XAS/XES, NRVS 
  Peter Pinski           : DLPNO-MP2, DLPNO-MP2 Gradient                 
  Christoph Reimann      : Effective Core Potentials                     
  Marius Retegan         : Local ZFS, SOC                                
  Christoph Riplinger    : Optimizer, TS searches, QM/MM, DLPNO-CCSD(T), (RO)-DLPNO pert. Triples 
  Michael Roemelt        : Original ROCIS implementation                 
  Masaaki Saitow         : Open-shell DLPNO-CCSD energy and density      
  Barbara Sandhoefer     : DKH picture change effects                    
  Kantharuban Sivalingam : CASSCF convergence/infrastructure, NEVPT2 and variants, FIC-MRCI 
  Bernardo de Souza      : ESD, SOC TD-DFT                               
  Georgi L. Stoychev     : AutoAux, RI-MP2 NMR, DLPNO-MP2 response, X2C  
  Van Anh Tran           : RI-MP2 g-tensors                              
  Willem Van den Heuvel  : Paramagnetic NMR                              
  Zikuan Wang            : NOTCH, Electric field optimization            
  Frank Wennmohs         : Technical directorship and infrastructure     
  Hang Xu                : AUTO-CI-Response properties                   
                                                                         
[FACCTs GmbH]                                                            
  Markus Bursch, Miquel Garcia-Rates, Christoph Riplinger, Bernardo de Souza, Georgi L. Stoychev 
                                                                 
  APM, Basis sets (HGBS, AHGBS, def-TZVP (Ac-Lr), def2-XVPD (La-Lu)), CI-OPT, improved COSX, DLPNO-Multilevel,           
  DOCKER, DRACO, updates on ESD, GOAT, IRC, LR-CPCM, MBIS, meta-GGA TD-DFT gradient, ML-optimized integration grids, 
  MM, NACMEs, nearIR, NEB, NEB-TS, NL-DFT gradient (VV10), 2- and 3-layer-ONIOM, interface openCOSMO-RS, QMMM,   
  Crystal-QMMM, SF, symmetry and pop. for TD-DFT, r2SCAN hybrids, SOLVATOR                                   
                                                                         
[Other institutions]                                                     
  V. Asgeirsson          : NEB                                           
  Christoph Bannwarth    : sTDA-DFT, sTD-DFT, PBEh-3c, B97-3c, D3        
  Sebastian Ehlert       : rSCAN, r2SCAN, r2SCAN-3c, D4, dhf basis sets  
  Marvin Friede          : D4 for Fr, Ra, Ac-Lr                          
  Lars Goerigk           : TD-DFT with DH, B97 family of functionals     
  Stefan Grimme          : VdW corrections, initial TS optimization, DFT functionals, gCP, sTDA/sTD-DF 
  Waldemar Hujo          : DFT-NL                                        
  H. Jonsson             : NEB                                           
  Holger Kruse           : gCP                                           
  Marcel Mueller         : wB97X-3c, vDZP basis set                      
  Hagen Neugebauer       : wr2SCAN                                       
  Tobias Risthaus        : range-separated hybrid DFT                    
  Lukas Wittmann         : regularized MP2, r2SCAN double-hybrids, wr2SCAN        
                                                                         
We gratefully acknowledge several colleagues who have allowed us to      
interface, adapt or use parts of their codes:                            
  Ed Valeev, F. Pavosevic, A. Kumar             : LibInt (2-el integral package), F12 methods 
  Garnet Chan, S. Sharma, J. Yang, R. Olivares  : DMRG                   
  Ulf Ekstrom                                   : XCFun DFT Library      
  Mihaly Kallay                                 : mrcc  (arbitrary order and MRCC methods)
  Frank Weinhold                                : gennbo (NPA and NBO analysis)           
  Simon Mueller                                 : openCOSMO-RS                            
  Christopher J. Cramer and Donald G. Truhlar   : smd solvation model                     
  S Lehtola, MJT Oliveira, MAL Marques          : LibXC Library                           
  Liviu Ungur et al                             : ANISO software                          


 Your calculation uses the libint2 library for the computation of 2-el integrals
 For citations please refer to: http://libint.valeyev.net

 Your ORCA version has been built with support for libXC version: 6.2.2
 For citations please refer to: https://libxc.gitlab.io

 This ORCA versions uses:
   CBLAS   interface :  Fast vector & matrix operations
   LAPACKE interface :  Fast linear algebra routines
   SCALAPACK package :  Parallel linear algebra routines
   Shared memory     :  Shared parallel matrices
   BLAS/LAPACK       :  OpenBLAS 0.3.27  USE64BITINT DYNAMIC_ARCH NO_AFFINITY Cooperlake SINGLE_THREADED
        Core in use  :  Cooperlake
   Copyright (c) 2011-2014, The OpenBLAS Project


NOTE: MaxCore=3600 MB was set to SCF,MP2,MDCI,CIPSI,MRCI and CIS
      => If you want to overwrite this, your respective input block should be placed after the MaxCore statement
Warning: RI is on but no J-basis has been assigned. Assigning Def2/J (nothing to worry about!)
================================================================================

----- Orbital basis set information -----
Your calculation utilizes the basis: def2-TZVP
   F. Weigend and R. Ahlrichs, Phys. Chem. Chem. Phys. 7, 3297 (2005).

----- AuxJ basis set information -----
Your calculation utilizes the auxiliary basis: def2/J
   F. Weigend, Phys. Chem. Chem. Phys. 8, 1057 (2006).

================================================================================
                                        WARNINGS
                       Please study these warnings very carefully!
================================================================================


WARNING: Geometry Optimization
  ===> : Switching off AutoStart
         For restart on a previous wavefunction, please use MOREAD

================================================================================
                                       INPUT FILE
================================================================================
NAME = DAGLUU01-S5.inp
|  1> ! PBE0 def2-TZVP  Opt Freq DEFGRID3
|  2> 
|  3> %maxcore 3600
|  4> 
|  5> %pal
|  6>     nprocs 16
|  7> end
|  8> 
|  9> *xyz 0 1
| 10> C 5.6597 5.7957 10.8996
| 11> C 5.6597 7.0464 10.2254
| 12> H 5.6597 7.8328 10.7212
| 13> C 5.6597 7.1106 8.8841
| 14> H 5.6597 7.9376 8.4596
| 15> C 5.6597 5.9309 8.1189
| 16> C 5.6597 4.7276 8.8286
| 17> C 5.6597 5.9039 6.6885
| 18> H 5.6597 6.705 6.2158
| 19> C 5.6597 4.749 6.0232
| 20> H 5.6597 4.7603 5.094
| 21> C 5.6597 3.4905 6.7099
| 22> C 5.6597 3.4759 8.1147
| 23> C 5.6597 2.25 6.0642
| 24> H 5.6597 2.2106 5.135
| 25> C 5.6597 1.1008 6.7919
| 26> H 5.6597 0.2772 6.3603
| 27> C 5.6597 1.1549 8.1939
| 28> C 5.6597 5.6831 12.3871
| 29> C 5.6597 -0.0991 9.0107
| 30> N 5.6597 4.66 10.1958
| 31> N 5.6597 2.3255 8.836
| 32> Cl 7.6164 2.1049 11.8319
| 33> Fe 5.6597 2.6695 10.9287
| 34> H 5.6597 0.0113 9.8633
| 35> H 6.3464 -0.5972 8.918
| 36> H 6.3916 5.1378 12.7527
| 37> H 5.6597 6.4447 12.6992
| 38> Cl 3.7029 2.1049 11.8319
| 39> H 4.9729 -0.5972 8.918
| 40> H 4.9277 5.1378 12.7527
| 41> *
| 42> 
| 43>                          ****END OF INPUT****
================================================================================

                       *****************************
                       * Geometry Optimization Run *
                       *****************************

Geometry optimization settings:
Update method            Update   .... BFGS
Choice of coordinates    CoordSys .... (2022) Redundant Internals
Initial Hessian          InHess   .... Almloef's Model
Max. no of cycles        MaxIter  .... 93

Convergence Tolerances:
Energy Change            TolE     ....  5.0000e-06 Eh
Max. Gradient            TolMAXG  ....  3.0000e-04 Eh/bohr
RMS Gradient             TolRMSG  ....  1.0000e-04 Eh/bohr
Max. Displacement        TolMAXD  ....  4.0000e-03 bohr
RMS Displacement         TolRMSD  ....  2.0000e-03 bohr
Strict Convergence                .... False

------------------------------------------------------------------------------
                        ORCA OPTIMIZATION COORDINATE SETUP
------------------------------------------------------------------------------

The optimization will be done in redundant internal coordinates (2022)
Making redundant internal coordinates   ...  (2022 redundants) done
Evaluating the initial hessian          ...  (Almloef) done
Evaluating the coordinates              ...  done
Calculating the B-matrix                .... done
Calculating the G-matrix                .... done
Diagonalizing the G-matrix              .... done
Small eigenvalue found = 2.057e-02
The first mode is                       ....   91
The number of degrees of freedom        ....   87

    -----------------------------------------------------------------
                    Redundant Internal Coordinates


    -----------------------------------------------------------------
         Definition                    Initial Value    Approx d2E/dq
    -----------------------------------------------------------------
      1. B(C   1,C   0)                  1.4208         0.557866   
      2. B(H   2,C   1)                  0.9296         0.649018   
      3. B(C   3,C   1)                  1.3428         0.742996   
      4. B(H   4,C   3)                  0.9296         0.649164   
      5. B(C   5,C   3)                  1.4061         0.588833   
      6. B(C   6,C   5)                  1.3970         0.608938   
      7. B(C   7,C   5)                  1.4307         0.538117   
      8. B(H   8,C   7)                  0.9302         0.647784   
      9. B(C   9,C   7)                  1.3328         0.770833   
     10. B(H  10,C   9)                  0.9293         0.649920   
     11. B(C  11,C   9)                  1.4337         0.532210   
     12. B(C  12,C  11)                  1.4049         0.591569   
     13. B(C  12,C   6)                  1.4410         0.518099   
     14. B(C  13,C  11)                  1.3985         0.605615   
     15. B(H  14,C  13)                  0.9300         0.648093   
     16. B(C  15,C  13)                  1.3602         0.697020   
     17. B(H  16,C  15)                  0.9298         0.648566   
     18. B(C  17,C  15)                  1.4030         0.595564   
     19. B(C  18,C   0)                  1.4918         0.429926   
     20. B(C  19,C  17)                  1.4966         0.422412   
     21. B(N  20,C   6)                  1.3689         0.604765   
     22. B(N  20,C   0)                  1.3361         0.682147   
     23. B(N  21,C  17)                  1.3351         0.684545   
     24. B(N  21,C  12)                  1.3578         0.629804   
     25. B(Fe 23,Cl 22)                  2.2278         0.653368   
     26. B(Fe 23,N  21)                  2.1208         0.386438   
     27. B(Fe 23,N  20)                  2.1211         0.385935   
     28. B(H  24,C  19)                  0.8597         0.839119   
     29. B(H  25,C  19)                  0.8534         0.858892   
     30. B(H  26,C  18)                  0.9832         0.533098   
     31. B(H  27,C  18)                  0.8231         0.960055   
     32. B(Cl 28,Fe 23)                  2.2279         0.653157   
     33. B(H  29,C  19)                  0.8535         0.858638   
     34. B(H  30,C  18)                  0.9833         0.532952   
     35. A(C   1,C   0,C  18)          122.6561         0.399124   
     36. A(C   1,C   0,N  20)          119.8860         0.430447   
     37. A(C  18,C   0,N  20)          117.4578         0.410897   
     38. A(C   0,C   1,H   2)          119.4426         0.383428   
     39. A(C   0,C   1,C   3)          121.0676         0.440003   
     40. A(H   2,C   1,C   3)          119.4898         0.403158   
     41. A(C   1,C   3,C   5)          120.2287         0.444321   
     42. A(H   4,C   3,C   5)          119.8595         0.387065   
     43. A(C   1,C   3,H   4)          119.9118         0.403174   
     44. A(C   3,C   5,C   7)          124.0504         0.419300   
     45. A(C   3,C   5,C   6)          116.4991         0.428674   
     46. A(C   6,C   5,C   7)          119.4505         0.421820   
     47. A(C   5,C   6,N  20)          123.3625         0.427921   
     48. A(C   5,C   6,C  12)          119.7701         0.418976   
     49. A(C  12,C   6,N  20)          116.8674         0.415752   
     50. A(C   5,C   7,C   9)          121.0262         0.440062   
     51. A(C   5,C   7,H   8)          119.4619         0.380910   
     52. A(H   8,C   7,C   9)          119.5119         0.405648   
     53. A(H  10,C   9,C  11)          119.3158         0.380398   
     54. A(C   7,C   9,H  10)          119.2481         0.405884   
     55. A(C   7,C   9,C  11)          121.4361         0.439186   
     56. A(C  12,C  11,C  13)          116.9022         0.428610   
     57. A(C   9,C  11,C  13)          123.8832         0.420579   
     58. A(C   9,C  11,C  12)          119.2145         0.418822   
     59. A(C   6,C  12,C  11)          119.1026         0.416822   
     60. A(C  11,C  12,N  21)          122.6831         0.428814   
     61. A(C   6,C  12,N  21)          118.2143         0.418766   
     62. A(H  14,C  13,C  15)          119.9149         0.398548   
     63. A(C  11,C  13,C  15)          120.1594         0.441456   
     64. A(C  11,C  13,H  14)          119.9257         0.388855   
     65. A(H  16,C  15,C  17)          119.8662         0.387771   
     66. A(C  13,C  15,H  16)          120.0007         0.398600   
     67. A(C  13,C  15,C  17)          120.1331         0.440123   
     68. A(C  15,C  17,C  19)          120.8686         0.402494   
     69. A(C  19,C  17,N  21)          118.1758         0.409869   
     70. A(C  15,C  17,N  21)          120.9556         0.435814   
     71. A(H  27,C  18,H  30)          111.8493         0.364381   
     72. A(C   0,C  18,H  30)          114.3693         0.354463   
     73. A(C   0,C  18,H  27)          107.9547         0.392290   
     74. A(C   0,C  18,H  26)          114.3712         0.354480   
     75. A(H  26,C  18,H  27)          111.8510         0.364398   
     76. A(H  26,C  18,H  30)           96.2194         0.330050   
     77. A(H  25,C  19,H  29)          107.1636         0.388136   
     78. A(H  24,C  19,H  29)          100.5249         0.386563   
     79. A(C  17,C  19,H  29)          115.4518         0.383544   
     80. A(H  24,C  19,H  25)          100.5259         0.386583   
     81. A(C  17,C  19,H  25)          115.4544         0.383564   
     82. A(C  17,C  19,H  24)          115.7005         0.382015   
     83. A(C   6,N  20,Fe 23)          113.0443         0.439982   
     84. A(C   0,N  20,Fe 23)          127.9996         0.449679   
     85. A(C   0,N  20,C   6)          118.9561         0.433881   
     86. A(C  17,N  21,Fe 23)          128.0806         0.450072   
     87. A(C  12,N  21,Fe 23)          112.7528         0.443325   
     88. A(C  12,N  21,C  17)          119.1666         0.437339   
     89. A(Cl 22,Fe 23,Cl 28)          122.8770         0.600108   
     90. A(N  21,Fe 23,Cl 28)          111.0343         0.522248   
     91. A(N  20,Fe 23,Cl 28)          112.2029         0.522121   
     92. A(N  21,Fe 23,Cl 22)          111.0352         0.522280   
     93. A(N  20,Fe 23,Cl 22)          112.2038         0.522152   
     94. A(N  20,Fe 23,N  21)           79.1212         0.456168   
     95. D(H   2,C   1,C   0,N  20)    180.0000         0.021312   
     96. D(C   3,C   1,C   0,N  20)      0.0000         0.021312   
     97. D(H   2,C   1,C   0,C  18)      0.0000         0.021312   
     98. D(C   3,C   1,C   0,C  18)    180.0000         0.021312   
     99. D(C   5,C   3,C   1,C   0)      0.0000         0.039298   
    100. D(C   5,C   3,C   1,H   2)    180.0000         0.039298   
    101. D(H   4,C   3,C   1,H   2)      0.0000         0.039298   
    102. D(H   4,C   3,C   1,C   0)    180.0000         0.039298   
    103. D(C   6,C   5,C   3,C   1)      0.0000         0.023856   
    104. D(C   7,C   5,C   3,C   1)    180.0000         0.023856   
    105. D(C   6,C   5,C   3,H   4)    180.0000         0.023856   
    106. D(C   7,C   5,C   3,H   4)      0.0000         0.023856   
    107. D(N  20,C   6,C   5,C   3)      0.0000         0.025604   
    108. D(C  12,C   6,C   5,C   7)      0.0000         0.025604   
    109. D(C  12,C   6,C   5,C   3)    180.0000         0.025604   
    110. D(N  20,C   6,C   5,C   7)    180.0000         0.025604   
    111. D(C   9,C   7,C   5,C   6)      0.0000         0.019782   
    112. D(H   8,C   7,C   5,C   3)      0.0000         0.019782   
    113. D(C   9,C   7,C   5,C   3)    180.0000         0.019782   
    114. D(H   8,C   7,C   5,C   6)    180.0000         0.019782   
    115. D(C  11,C   9,C   7,H   8)    180.0000         0.042605   
    116. D(C  11,C   9,C   7,C   5)      0.0000         0.042605   
    117. D(H  10,C   9,C   7,H   8)      0.0000         0.042605   
    118. D(H  10,C   9,C   7,C   5)    180.0000         0.042605   
    119. D(C  13,C  11,C   9,H  10)      0.0000         0.019338   
    120. D(C  13,C  11,C   9,C   7)    180.0000         0.019338   
    121. D(C  12,C  11,C   9,H  10)    180.0000         0.019338   
    122. D(C  12,C  11,C   9,C   7)      0.0000         0.019338   
    123. D(N  21,C  12,C   6,C   5)    180.0000         0.018303   
    124. D(C  11,C  12,C   6,N  20)    180.0000         0.018303   
    125. D(C  11,C  12,C   6,C   5)      0.0000         0.018303   
    126. D(N  21,C  12,C  11,C   9)    180.0000         0.024089   
    127. D(N  21,C  12,C  11,C  13)      0.0000         0.024089   
    128. D(C   6,C  12,C  11,C  13)    180.0000         0.024089   
    129. D(C   6,C  12,C  11,C   9)      0.0000         0.024089   
    130. D(N  21,C  12,C   6,N  20)      0.0000         0.018303   
    131. D(C  15,C  13,C  11,C  12)      0.0000         0.025310   
    132. D(C  15,C  13,C  11,C   9)    180.0000         0.025310   
    133. D(H  14,C  13,C  11,C  12)    180.0000         0.025310   
    134. D(H  14,C  13,C  11,C   9)      0.0000         0.025310   
    135. D(C  17,C  15,C  13,H  14)    180.0000         0.034193   
    136. D(C  17,C  15,C  13,C  11)      0.0000         0.034193   
    137. D(H  16,C  15,C  13,H  14)      0.0000         0.034193   
    138. D(H  16,C  15,C  13,C  11)    180.0000         0.034193   
    139. D(N  21,C  17,C  15,H  16)    180.0000         0.024433   
    140. D(N  21,C  17,C  15,C  13)      0.0000         0.024433   
    141. D(C  19,C  17,C  15,H  16)      0.0000         0.024433   
    142. D(C  19,C  17,C  15,C  13)    180.0000         0.024433   
    143. D(H  30,C  18,C   0,C   1)    125.1885         0.013651   
    144. D(H  27,C  18,C   0,N  20)    180.0000         0.013651   
    145. D(H  27,C  18,C   0,C   1)      0.0000         0.013651   
    146. D(H  26,C  18,C   0,N  20)     54.8079         0.013651   
    147. D(H  26,C  18,C   0,C   1)   -125.1921         0.013651   
    148. D(H  29,C  19,C  17,C  15)    -63.0272         0.013190   
    149. D(H  25,C  19,C  17,N  21)   -116.9762         0.013190   
    150. D(H  25,C  19,C  17,C  15)     63.0238         0.013190   
    151. D(H  24,C  19,C  17,N  21)      0.0000         0.013190   
    152. D(H  24,C  19,C  17,C  15)    180.0000         0.013190   
    153. D(C   0,N  20,C   6,C   5)      0.0000         0.029504   
    154. D(Fe 23,N  20,C   0,C  18)      0.0000         0.038312   
    155. D(Fe 23,N  20,C   0,C   1)    180.0000         0.038312   
    156. D(C   6,N  20,C   0,C  18)    180.0000         0.038312   
    157. D(C   6,N  20,C   0,C   1)      0.0000         0.038312   
    158. D(Fe 23,N  20,C   6,C  12)      0.0000         0.029504   
    159. D(Fe 23,N  20,C   6,C   5)    180.0000         0.029504   
    160. D(C   0,N  20,C   6,C  12)    180.0000         0.029504   
    161. D(Fe 23,N  21,C  17,C  19)      0.0000         0.038608   
    162. D(Fe 23,N  21,C  17,C  15)    180.0000         0.038608   
    163. D(C  12,N  21,C  17,C  19)    180.0000         0.038608   
    164. D(C  12,N  21,C  17,C  15)      0.0000         0.038608   
    165. D(Fe 23,N  21,C  12,C  11)    180.0000         0.032199   
    166. D(Fe 23,N  21,C  12,C   6)      0.0000         0.032199   
    167. D(C  17,N  21,C  12,C  11)      0.0000         0.032199   
    168. D(C  17,N  21,C  12,C   6)    180.0000         0.032199   
    169. D(Cl 28,Fe 23,N  21,C  12)    109.7776         0.002182   
    170. D(Cl 22,Fe 23,N  21,C  17)     70.2215         0.002182   
    171. D(Cl 22,Fe 23,N  21,C  12)   -109.7785         0.002182   
    172. D(N  20,Fe 23,N  21,C  17)    180.0000         0.002182   
    173. D(N  20,Fe 23,N  21,C  12)      0.0000         0.002182   
    174. D(Cl 28,Fe 23,N  20,C   0)     71.5591         0.002180   
    175. D(Cl 22,Fe 23,N  20,C   6)    108.4417         0.002180   
    176. D(Cl 22,Fe 23,N  20,C   0)    -71.5583         0.002180   
    177. D(N  21,Fe 23,N  20,C   6)      0.0000         0.002180   
    178. D(N  21,Fe 23,N  20,C   0)    180.0000         0.002180   
    -----------------------------------------------------------------

Number of atoms                         .... 31
Number of degrees of freedom            .... 178


         *************************************************************
         *                GEOMETRY OPTIMIZATION CYCLE   1            *
         *************************************************************
---------------------------------
CARTESIAN COORDINATES (ANGSTROEM)
---------------------------------
  C      5.659700    5.795700   10.899600
  C      5.659700    7.046400   10.225400
  H      5.659700    7.832800   10.721200
  C      5.659700    7.110600    8.884100
  H      5.659700    7.937600    8.459600
  C      5.659700    5.930900    8.118900
  C      5.659700    4.727600    8.828600
  C      5.659700    5.903900    6.688500
  H      5.659700    6.705000    6.215800
  C      5.659700    4.749000    6.023200
  H      5.659700    4.760300    5.094000
  C      5.659700    3.490500    6.709900
  C      5.659700    3.475900    8.114700
  C      5.659700    2.250000    6.064200
  H      5.659700    2.210600    5.135000
  C      5.659700    1.100800    6.791900
  H      5.659700    0.277200    6.360300
  C      5.659700    1.154900    8.193900
  C      5.659700    5.683100   12.387100
  C      5.659700   -0.099100    9.010700
  N      5.659700    4.660000   10.195800
  N      5.659700    2.325500    8.836000
  Cl     7.616400    2.104900   11.831900
  Fe     5.659700    2.669500   10.928700
  H      5.659700    0.011300    9.863300
  H      6.346400   -0.597200    8.918000
  H      6.391600    5.137800   12.752700
  H      5.659700    6.444700   12.699200
  Cl     3.702900    2.104900   11.831900
  H      4.972900   -0.597200    8.918000
  H      4.927700    5.137800   12.752700

----------------------------
CARTESIAN COORDINATES (A.U.)
----------------------------
  NO LB      ZA    FRAG     MASS         X           Y           Z
   0 C     6.0000    0    12.011   10.695283   10.952286   20.597259
   1 C     6.0000    0    12.011   10.695283   13.315766   19.323206
   2 H     1.0000    0     1.008   10.695283   14.801847   20.260132
   3 C     6.0000    0    12.011   10.695283   13.437087   16.788516
   4 H     1.0000    0     1.008   10.695283   14.999890   15.986327
   5 C     6.0000    0    12.011   10.695283   11.207777   15.342498
   6 C     6.0000    0    12.011   10.695283    8.933869   16.683636
   7 C     6.0000    0    12.011   10.695283   11.156754   12.639433
   8 H     1.0000    0     1.008   10.695283   12.670614   11.746160
   9 C     6.0000    0    12.011   10.695283    8.974309   11.382198
  10 H     1.0000    0     1.008   10.695283    8.995663    9.626265
  11 C     6.0000    0    12.011   10.695283    6.596089   12.679873
  12 C     6.0000    0    12.011   10.695283    6.568499   15.334561
  13 C     6.0000    0    12.011   10.695283    4.251884   11.459677
  14 H     1.0000    0     1.008   10.695283    4.177429    9.703744
  15 C     6.0000    0    12.011   10.695283    2.080211   12.834831
  16 H     1.0000    0     1.008   10.695283    0.523832   12.019225
  17 C     6.0000    0    12.011   10.695283    2.182445   15.484227
  18 C     6.0000    0    12.011   10.695283   10.739503   23.408227
  19 C     6.0000    0    12.011   10.695283   -0.187272   17.027755
  20 N     7.0000    0    14.007   10.695283    8.806124   19.267270
  21 N     7.0000    0    14.007   10.695283    4.394558   16.697620
  22 Cl   17.0000    0    35.453   14.392910    3.977685   22.359051
  23 Fe   26.0000    0    55.850   10.695283    5.044624   20.652250
  24 H     1.0000    0     1.008   10.695283    0.021354   18.638936
  25 H     1.0000    0     1.008   11.992958   -1.128544   16.852578
  26 H     1.0000    0     1.008   12.078374    9.709035   24.099110
  27 H     1.0000    0     1.008   10.695283   12.178718   23.998010
  28 Cl   17.0000    0    35.453    6.997467    3.977685   22.359051
  29 H     1.0000    0     1.008    9.397419   -1.128544   16.852578
  30 H     1.0000    0     1.008    9.312003    9.709035   24.099110

--------------------------------
INTERNAL COORDINATES (ANGSTROEM)
--------------------------------
 C      0   0   0     0.000000000000     0.00000000     0.00000000
 C      1   0   0     1.420843457246     0.00000000     0.00000000
 H      2   1   0     0.929646491953   119.44263442     0.00000000
 C      2   1   3     1.342835555830   121.06756261   180.00000000
 H      4   2   1     0.929585525920   119.91179346   180.00000000
 C      4   2   1     1.406137663958   120.22871980     0.00000000
 C      6   4   2     1.396998561202   116.49908576     0.00000000
 C      6   4   2     1.430654801131   124.05041182   180.00000000
 H      8   6   4     0.930164770350   119.46193301     0.00000000
 C      8   6   4     1.332823356638   121.02621067   180.00000000
 H     10   8   6     0.929268707103   119.24809363   180.00000000
 C     10   8   6     1.433659352845   121.43609542     0.00000000
 C     12  10   8     1.404875866402   119.21452147     0.00000000
 C     12  10   8     1.398488019255   123.88323355   180.00000000
 H     14  12  10     0.930034945580   119.92570006     0.00000000
 C     14  12  10     1.360223485314   120.15936898   180.00000000
 H     16  14  12     0.929836286666   120.00069167   180.00000000
 C     16  14  12     1.403043409877   120.13311818     0.00000000
 C      1   2   3     1.491755680398   122.65613841     0.00000000
 C     18  16  14     1.496555458378   120.86861960   180.00000000
 N      1   2   3     1.336094656078   119.88601219   180.00000000
 N     18  16  14     1.335139232440   120.95556062     0.00000000
 Cl    22  18  16     3.585074066181   110.36127614   215.60302802
 Fe    22  18  16     2.120785064546   128.08059522   180.00000000
 H     20  18  16     0.859717930487   115.70047214   180.00000000
 H     20  18  16     0.853377870583   115.45440732    63.02379970
 H     19   1   2     0.983205502426   114.37124278   234.80785903
 H     19   1   2     0.823068022705   107.95469102     0.00000000
 Cl    24  22  18     2.227915985849   111.03430039   289.77756288
 H     20  18  16     0.853458341104   115.45183587   296.97282766
 H     19   1   2     0.983279944878   114.36927773   125.18845429

---------------------------
INTERNAL COORDINATES (A.U.)
---------------------------
 C      0   0   0     0.000000000000     0.00000000     0.00000000
 C      1   0   0     2.685005013370     0.00000000     0.00000000
 H      2   1   0     1.756777271151   119.44263442     0.00000000
 C      2   1   3     2.537591443410   121.06756261   180.00000000
 H      4   2   1     1.756662062046   119.91179346   180.00000000
 C      4   2   1     2.657215091472   120.22871980     0.00000000
 C      6   4   2     2.639944690153   116.49908576     0.00000000
 C      6   4   2     2.703545766318   124.05041182   180.00000000
 H      8   6   4     1.757756675383   119.46193301     0.00000000
 C      8   6   4     2.518671128940   121.02621067   180.00000000
 H     10   8   6     1.756063361247   119.24809363   180.00000000
 C     10   8   6     2.709223546212   121.43609542     0.00000000
 C     12  10   8     2.654830639656   119.21452147     0.00000000
 C     12  10   8     2.642759357962   123.88323355   180.00000000
 H     14  12  10     1.757511342123   119.92570006     0.00000000
 C     14  12  10     2.570449868171   120.15936898   180.00000000
 H     16  14  12     1.757135931180   120.00069167   180.00000000
 C     16  14  12     2.651367798671   120.13311818     0.00000000
 C      1   2   3     2.819009694674   122.65613841     0.00000000
 C     18  16  14     2.828079960559   120.86861960   180.00000000
 N      1   2   3     2.524852988983   119.88601219   180.00000000
 N     18  16  14     2.523047499965   120.95556062     0.00000000
 Cl    22  18  16     6.774808154905   110.36127614   215.60302802
 Fe    22  18  16     4.007702960902   128.08059522   180.00000000
 H     20  18  16     1.624631441041   115.70047214   180.00000000
 H     20  18  16     1.612650464150   115.45440732    63.02379970
 H     19   1   2     1.857989132949   114.37124278   234.80785903
 H     19   1   2     1.555373152501   107.95469102     0.00000000
 Cl    24  22  18     4.210151062639   111.03430039   289.77756288
 H     20  18  16     1.612802531397   115.45183587   296.97282766
 H     19   1   2     1.858129808797   114.36927773   125.18845429

---------------------
BASIS SET INFORMATION
---------------------
There are 5 groups of distinct atoms

 Group   1 Type C   : 11s6p2d1f contracted to 5s3p2d1f pattern {62111/411/11/1}
 Group   2 Type H   : 5s1p contracted to 3s1p pattern {311/1}
 Group   3 Type N   : 11s6p2d1f contracted to 5s3p2d1f pattern {62111/411/11/1}
 Group   4 Type Cl  : 14s9p3d1f contracted to 5s5p2d1f pattern {73211/51111/21/1}
 Group   5 Type Fe  : 17s11p7d1f contracted to 6s4p4d1f pattern {842111/6311/4111/1}

Atom   0C    basis set group =>   1
Atom   1C    basis set group =>   1
Atom   2H    basis set group =>   2
Atom   3C    basis set group =>   1
Atom   4H    basis set group =>   2
Atom   5C    basis set group =>   1
Atom   6C    basis set group =>   1
Atom   7C    basis set group =>   1
Atom   8H    basis set group =>   2
Atom   9C    basis set group =>   1
Atom  10H    basis set group =>   2
Atom  11C    basis set group =>   1
Atom  12C    basis set group =>   1
Atom  13C    basis set group =>   1
Atom  14H    basis set group =>   2
Atom  15C    basis set group =>   1
Atom  16H    basis set group =>   2
Atom  17C    basis set group =>   1
Atom  18C    basis set group =>   1
Atom  19C    basis set group =>   1
Atom  20N    basis set group =>   3
Atom  21N    basis set group =>   3
Atom  22Cl   basis set group =>   4
Atom  23Fe   basis set group =>   5
Atom  24H    basis set group =>   2
Atom  25H    basis set group =>   2
Atom  26H    basis set group =>   2
Atom  27H    basis set group =>   2
Atom  28Cl   basis set group =>   4
Atom  29H    basis set group =>   2
Atom  30H    basis set group =>   2
---------------------------------
AUXILIARY/J BASIS SET INFORMATION
---------------------------------
There are 5 groups of distinct atoms

 Group   1 Type C   : 12s5p4d2f1g contracted to 6s4p3d1f1g pattern {711111/2111/211/2/1}
 Group   2 Type H   : 5s2p1d contracted to 3s1p1d pattern {311/2/1}
 Group   3 Type N   : 12s5p4d2f1g contracted to 6s4p3d1f1g pattern {711111/2111/211/2/1}
 Group   4 Type Cl  : 14s5p5d2f1g contracted to 8s4p3d1f1g pattern {71111111/2111/311/2/1}
 Group   5 Type Fe  : 19s5p5d3f3g contracted to 8s5p5d2f3g pattern {121111111/11111/11111/21/111}

Atom   0C    basis set group =>   1
Atom   1C    basis set group =>   1
Atom   2H    basis set group =>   2
Atom   3C    basis set group =>   1
Atom   4H    basis set group =>   2
Atom   5C    basis set group =>   1
Atom   6C    basis set group =>   1
Atom   7C    basis set group =>   1
Atom   8H    basis set group =>   2
Atom   9C    basis set group =>   1
Atom  10H    basis set group =>   2
Atom  11C    basis set group =>   1
Atom  12C    basis set group =>   1
Atom  13C    basis set group =>   1
Atom  14H    basis set group =>   2
Atom  15C    basis set group =>   1
Atom  16H    basis set group =>   2
Atom  17C    basis set group =>   1
Atom  18C    basis set group =>   1
Atom  19C    basis set group =>   1
Atom  20N    basis set group =>   3
Atom  21N    basis set group =>   3
Atom  22Cl   basis set group =>   4
Atom  23Fe   basis set group =>   5
Atom  24H    basis set group =>   2
Atom  25H    basis set group =>   2
Atom  26H    basis set group =>   2
Atom  27H    basis set group =>   2
Atom  28Cl   basis set group =>   4
Atom  29H    basis set group =>   2
Atom  30H    basis set group =>   2


           ************************************************************
           *        Program running with 16 parallel MPI-processes    *
           *              working on a common directory               *
           ************************************************************
------------------------------------------------------------------------------
                             ORCA STARTUP CALCULATIONS
                           -- RI-GTO INTEGRALS CHOSEN --
------------------------------------------------------------------------------
------------------------------------------------------------------------------
                   ___                                                        
                  /   \      - P O W E R E D   B Y -                         
                 /     \                                                     
                 |  |  |   _    _      __       _____    __    __             
                 |  |  |  | |  | |    /  \     |  _  \  |  |  /  |          
                  \  \/   | |  | |   /    \    | | | |  |  | /  /          
                 / \  \   | |__| |  /  /\  \   | |_| |  |  |/  /          
                |  |  |   |  __  | /  /__\  \  |    /   |      \           
                |  |  |   | |  | | |   __   |  |    \   |  |\   \          
                \     /   | |  | | |  |  |  |  | |\  \  |  | \   \       
                 \___/    |_|  |_| |__|  |__|  |_| \__\ |__|  \__/        
                                                                              
                      - O R C A' S   B I G   F R I E N D -                    
                                      &                                       
                       - I N T E G R A L  F E E D E R -                       
                                                                              
 v1 FN, 2020, v2 2021, v3 2022-2024                                           
------------------------------------------------------------------------------


----------------------
SHARK INTEGRAL PACKAGE
----------------------

Number of atoms                             ...     31
Number of basis functions                   ...    687
Number of shells                            ...    265
Maximum angular momentum                    ...      3
Integral batch strategy                     ... SHARK/LIBINT Hybrid
RI-J (if used) integral strategy            ... SPLIT-RIJ (Revised 2003 algorithm where possible)
Printlevel                                  ...      1
Contraction scheme used                     ... SEGMENTED contraction
Prescreening option                         ... SCHWARTZ
   Thresh                                   ... 2.500e-11
   Tcut                                     ... 2.500e-12
   Tpresel                                  ... 2.500e-12 
Coulomb Range Separation                    ... NOT USED
Exchange Range Separation                   ... NOT USED
Multipole approximations                    ... NOT USED
Finite Nucleus Model                        ... NOT USED
CABS basis                                  ... NOT available
Auxiliary Coulomb fitting basis             ... AVAILABLE
   # of basis functions in Aux-J            ...   1107
   # of shells in Aux-J                     ...    357
   Maximum angular momentum in Aux-J        ...      4
Auxiliary J/K fitting basis                 ... NOT available
Auxiliary Correlation fitting basis         ... NOT available
Auxiliary 'external' fitting basis          ... NOT available

Checking pre-screening integrals            ... done (  0.0 sec) Dimension = 265
Check shell pair data                       ... done (  0.0 sec)
Shell pair information
Shell pair cut-off parameter TPreSel        ...   2.5e-12
Total number of shell pairs                 ...     35245
Shell pairs after pre-screening             ...     26767
Total number of primitive shell pairs       ...    116922
Primitive shell pairs kept                  ...     58251
          la=0 lb=0:   6314 shell pairs
          la=1 lb=0:   7494 shell pairs
          la=1 lb=1:   2259 shell pairs
          la=2 lb=0:   4033 shell pairs
          la=2 lb=1:   2398 shell pairs
          la=2 lb=2:    690 shell pairs
          la=3 lb=0:   1739 shell pairs
          la=3 lb=1:   1086 shell pairs
          la=3 lb=2:    614 shell pairs
          la=3 lb=3:    140 shell pairs

Calculating one electron integrals          ... done (  0.0 sec)
done (  0.1 sec)
Calculating Nuclear repulsion               ... done (  0.0 sec) ENN=   2097.092468406633 Eh

Diagonalization of the overlap matrix:
Smallest eigenvalue                        ... 2.729e-06
Time for diagonalization                   ...    0.064 sec
Threshold for overlap eigenvalues          ... 1.000e-07
Number of eigenvalues below threshold      ... 0
Time for construction of square roots      ...    0.043 sec
Total time needed                          ...    0.131 sec

-------------------
DFT GRID GENERATION
-------------------

General Integration Accuracy     IntAcc      ... 4.959
Radial Grid Type                 RadialGrid  ... OptM3 with GC (2021)
Angular Grid (max. ang.)         AngularGrid ... 6 (Lebedev-590)
Angular grid pruning method      GridPruning ... 4 (adaptive)
Weight generation scheme         WeightScheme... mBecke (2022)
Basis function cutoff            BFCut       ... 1.0000e-11
Integration weight cutoff        WCut        ... 1.0000e-14
Partially contracted basis set               ... off
Rotationally invariant grid construction     ... off
Angular grids for H and He will be reduced by one unit
Core-polarized basis detected: some atoms will have their core
                               angular grid increased.

Total number of grid points                  ...   387415
Total number of batches                      ...     6069
Average number of points per batch           ...       63
Average number of grid points per atom       ...    12497

--------------------
COSX GRID GENERATION
--------------------

GRIDX 1
-------
General Integration Accuracy     IntAcc      ... 4.020
Radial Grid Type                 RadialGrid  ... OptM3 with GC (2021)
Angular Grid (max. ang.)         AngularGrid ... 2 (Lebedev-110)
Angular grid pruning method      GridPruning ... 4 (adaptive)
Weight generation scheme         WeightScheme... mBecke (2022)
Basis function cutoff            BFCut       ... 1.0000e-11
Integration weight cutoff        WCut        ... 1.0000e-14
Partially contracted basis set               ... on
Rotationally invariant grid construction     ... off
Angular grids for H and He will be reduced by one unit
Core-polarized basis detected: some atoms will have their core
                               angular grid increased.

Total number of grid points                  ...    46317
Total number of batches                      ...      375
Average number of points per batch           ...      123
Average number of grid points per atom       ...     1494
UseSFitting                                  ... on

GRIDX 2
-------
General Integration Accuracy     IntAcc      ... 4.338
Radial Grid Type                 RadialGrid  ... OptM3 with GC (2021)
Angular Grid (max. ang.)         AngularGrid ... 3 (Lebedev-194)
Angular grid pruning method      GridPruning ... 4 (adaptive)
Weight generation scheme         WeightScheme... mBecke (2022)
Basis function cutoff            BFCut       ... 1.0000e-11
Integration weight cutoff        WCut        ... 1.0000e-14
Partially contracted basis set               ... on
Rotationally invariant grid construction     ... off
Angular grids for H and He will be reduced by one unit
Core-polarized basis detected: some atoms will have their core
                               angular grid increased.

Total number of grid points                  ...    96057
Total number of batches                      ...      767
Average number of points per batch           ...      125
Average number of grid points per atom       ...     3099
UseSFitting                                  ... on

GRIDX 3
-------
General Integration Accuracy     IntAcc      ... 4.871
Radial Grid Type                 RadialGrid  ... OptM3 with GC (2021)
Angular Grid (max. ang.)         AngularGrid ... 4 (Lebedev-302)
Angular grid pruning method      GridPruning ... 4 (adaptive)
Weight generation scheme         WeightScheme... mBecke (2022)
Basis function cutoff            BFCut       ... 1.0000e-11
Integration weight cutoff        WCut        ... 1.0000e-14
Partially contracted basis set               ... on
Rotationally invariant grid construction     ... off
Angular grids for H and He will be reduced by one unit
Core-polarized basis detected: some atoms will have their core
                               angular grid increased.

Total number of grid points                  ...   178169
Total number of batches                      ...     1405
Average number of points per batch           ...      126
Average number of grid points per atom       ...     5747
UseSFitting                                  ... on
Initializing property integral containers    ... done (  0.0 sec)

SHARK setup successfully completed in   7.0 seconds

Maximum memory used throughout the entire STARTUP-calculation: 115.5 MB


           ************************************************************
           *        Program running with 16 parallel MPI-processes    *
           *              working on a common directory               *
           ************************************************************
-------------------------------------------------------------------------------
                                 ORCA GUESS
                   Start orbitals & Density for SCF / CASSCF
-------------------------------------------------------------------------------

------------
SCF SETTINGS
------------
Hamiltonian:
 Density Functional     Method          .... DFT(GTOs)
 Exchange Functional    Exchange        .... PBE
   PBE kappa parameter   XKappa         ....  0.804000
   PBE mue parameter    XMuePBE         ....  0.219520
 Correlation Functional Correlation     .... PBE
   PBE beta parameter  CBetaPBE         ....  0.066725
 LDA part of GGA corr.  LDAOpt          .... PW91-LDA
 Gradients option       PostSCFGGA      .... off
 Hybrid DFT is turned on
   Fraction HF Exchange ScalHFX         ....  0.250000
   Scaling of DF-GGA-X  ScalDFX         ....  0.750000
   Scaling of DF-GGA-C  ScalDFC         ....  1.000000
   Scaling of DF-LDA-C  ScalLDAC        ....  1.000000
   Perturbative correction              ....  0.000000
   NL short-range parameter             ....  6.900000
 RI-approximation to the Coulomb term is turned on
   Number of AuxJ basis functions       .... 1107
   RIJ-COSX (HFX calculated with COS-X)).... on


General Settings:
 Integral files         IntName         .... DAGLUU01-S5
 Hartree-Fock type      HFTyp           .... RHF
 Total Charge           Charge          ....    0
 Multiplicity           Mult            ....    1
 Number of Electrons    NEL             ....  170
 Basis Dimension        Dim             ....  687
 Nuclear Repulsion      ENuc            ....   2097.0924684066 Eh

Convergence Acceleration:
 AO-DIIS                CNVDIIS         .... on
   Start iteration      DIISMaxIt       ....    12
   Startup error        DIISStart       ....  0.200000
   # of expansion vecs  DIISMaxEq       ....     5
   Bias factor          DIISBfac        ....   1.050
   Max. coefficient     DIISMaxC        ....  10.000
 MO-DIIS                CNVKDIIS        .... off
 Trust-Rad. Augm. Hess. CNVTRAH         .... auto
   Auto Start mean grad. ratio tolernc. ....  1.125000
   Auto Start start iteration           ....    50
   Auto Start num. interpolation iter.  ....    10
   Max. Number of Micro iterations      ....    24
   Max. Number of Macro iterations      .... Maxiter - #DIIS iter
   Number of Davidson start vectors     ....     2
   Converg. threshold    (grad. norm)   ....   1.000e-05
   Grad. Scal. Fac. for Micro threshold ....   0.100
   Minimum threshold for Micro iter.    ....   1.000e-02
   NR start threshold (gradient norm)   ....   1.000e-04
   Initial trust radius                 ....   0.400
   Minimum AH scaling param. (alpha)    ....   1.000
   Maximum AH scaling param. (alpha)    .... 1000.000
   Quad. conv. algorithm                .... NR
   White noise on init. David. guess    .... on
   Maximum white noise                  ....   0.010
   Pseudo random numbers                .... off
   Inactive MOs                         .... canonical
   Orbital update algorithm             .... Taylor
   Preconditioner                       .... Diag
   Full preconditioner red. dimension   ....   250
 SOSCF                  CNVSOSCF        .... on
   Start iteration      SOSCFMaxIt      ....   150
   Startup grad/error   SOSCFStart      ....  0.003300
   Hessian update       SOSCFHessUp     .... L-BFGS
 Level Shifting         CNVShift        .... on
   Level shift para.    LevelShift      ....    0.2500
   Turn off err/grad.   ShiftErr        ....    0.0010
 Zerner damping         CNVZerner       .... off
 Static damping         CNVDamp         .... on
   Fraction old density DampFac         ....    0.7000
   Max. Damping (<1)    DampMax         ....    0.9800
   Min. Damping (>=0)   DampMin         ....    0.0000
   Turn off err/grad.   DampErr         ....    0.1000

SCF Procedure:
 Maximum # iterations   MaxIter         ....   125
 SCF integral mode      SCFMode         .... Direct
   Integral package                     .... SHARK and LIBINT hybrid scheme
 Reset frequency        DirectResetFreq ....    20
 Integral Threshold     Thresh          ....  2.500e-11 Eh
 Primitive CutOff       TCut            ....  2.500e-12 Eh

Convergence Tolerance:
 Convergence Check Mode ConvCheckMode   .... Total+1el-Energy
 Convergence forced     ConvForced      .... 0
 Energy Change          TolE            ....  1.000e-08 Eh
 1-El. energy change                    ....  1.000e-05 Eh
 Orbital Gradient       TolG            ....  1.000e-05
 Orbital Rotation angle TolX            ....  1.000e-05
 DIIS Error             TolErr          ....  5.000e-07

------------------------------
INITIAL GUESS: MODEL POTENTIAL
------------------------------
Loading Hartree-Fock densities                     ... done
Calculating cut-offs                               ... done
Initializing the effective Hamiltonian             ... done
Setting up the integral package (SHARK)            ... done
done (   0.2 sec)
Making the grid                                    ... done (   0.2 sec)
Mapping shells                                     ... done
Starting the XC term evaluation                    ... done (   0.1 sec)
  promolecular density results
     # of electrons  =    169.982788089
     EX              =   -197.649949248
     EC              =     -6.238862841
     EX+EC           =   -203.888812088
Transforming the Hamiltonian                       ... done (   0.1 sec)
done (   0.1 sec)
Back transforming the eigenvectors                 ... done (   0.0 sec)
done
                      ------------------
                      INITIAL GUESS DONE (   0.8 sec)
                      ------------------
             **** ENERGY FILE WAS UPDATED (DAGLUU01-S5.en.tmp) ****
Finished Guess after   1.1 sec
Maximum memory used throughout the entire GUESS-calculation: 52.8 MB


           ************************************************************
           *        Program running with 16 parallel MPI-processes    *
           *              working on a common directory               *
           ************************************************************

-------------------------------------------------------------------------------------------
                                      ORCA LEAN-SCF
                              memory conserving SCF solver
-------------------------------------------------------------------------------------------

----------------------------------------D-I-I-S--------------------------------------------
Iteration    Energy (Eh)           Delta-E    RMSDP     MaxDP     DIISErr   Damp  Time(sec)
-------------------------------------------------------------------------------------------
               ***  Starting incremental Fock matrix formation  ***
    1    -2832.5017962849487958     0.00e+00  1.17e-03  5.88e-02  2.82e-01  0.700   9.8
    2    -2832.7181684857023356    -2.16e-01  8.48e-04  3.66e-02  1.55e-01  0.700   5.3
                               ***Turning on AO-DIIS***
    3    -2832.8199909731692969    -1.02e-01  5.42e-04  3.07e-02  7.03e-02  0.700   5.0
    4    -2832.8829466441247860    -6.30e-02  1.06e-03  4.94e-02  4.04e-02  0.000   4.9
    5    -2833.0187195524049457    -1.36e-01  2.69e-04  1.49e-02  1.19e-02  0.000   5.0
    6    -2833.0205631311810066    -1.84e-03  8.85e-05  5.19e-03  3.52e-03  0.000   4.6
    7    -2833.0211088265141370    -5.46e-04  6.69e-05  3.33e-03  3.69e-03  0.000   4.4
    8    -2833.0213629572472200    -2.54e-04  5.03e-05  3.78e-03  5.17e-03  0.000   4.3
                              *** Initializing SOSCF ***
---------------------------------------S-O-S-C-F--------------------------------------
Iteration    Energy (Eh)           Delta-E    RMSDP     MaxDP     MaxGrad    Time(sec)
--------------------------------------------------------------------------------------
    9    -2833.0215360472457178    -1.73e-04  3.68e-05  2.10e-03  1.05e-03     4.5
               *** Restarting incremental Fock matrix formation ***
   10    -2833.0216154520512646    -7.94e-05  5.26e-05  3.13e-03  1.58e-03     9.7
   11    -2833.0216613937900547    -4.59e-05  8.13e-05  4.69e-03  1.12e-03     7.1
   12    -2833.0216029516486742     5.84e-05  5.39e-05  3.32e-03  2.08e-03     7.1
   13    -2833.0216812015396499    -7.82e-05  2.38e-05  1.31e-03  1.77e-04     6.9
   14    -2833.0216810185029317     1.83e-07  9.52e-06  4.72e-04  1.72e-04     6.3
   15    -2833.0216836012778003    -2.58e-06  6.48e-06  4.91e-04  4.95e-05     5.9
   16    -2833.0216835900318983     1.12e-08  1.38e-05  1.37e-03  4.83e-05     5.5
   17    -2833.0216837539055632    -1.64e-07  2.27e-05  2.17e-03  3.56e-05     5.1
   18    -2833.0216838366222873    -8.27e-08  1.66e-05  1.21e-03  2.52e-05     5.2
   19    -2833.0216838956193897    -5.90e-08  3.19e-05  2.65e-03  1.48e-05     5.1
   20    -2833.0216838905025725     5.12e-09  1.27e-05  1.22e-03  8.54e-06     5.1
                 **** Energy Check signals convergence ****

               *****************************************************
               *                     SUCCESS                       *
               *           SCF CONVERGED AFTER  20 CYCLES          *
               *****************************************************

 done (   13.867 sec)
Old exchange energy                            :    -50.116470927 Eh
New exchange energy                            :    -50.116477406 Eh
Exchange energy change after final integration :     -0.000006479 Eh
Total energy after final integration           :  -2833.021690370 Eh
             **** ENERGY FILE WAS UPDATED (DAGLUU01-S5.en.tmp) ****

----------------
TOTAL SCF ENERGY
----------------

Total Energy       :      -2833.02169036952455 Eh          -77090.43940 eV

Components:
Nuclear Repulsion  :       2097.09246840663309 Eh           57064.78718 eV
Electronic Energy  :      -4930.11415229713566 Eh         -134155.22640 eV
One Electron Energy:      -8071.89366611558762 Eh         -219647.39331 eV
Two Electron Energy:       3141.77951381845241 Eh           85492.16691 eV

Virial components:
Potential Energy   :      -5664.03364721466733 Eh         -154126.19116 eV
Kinetic Energy     :       2831.01195684514278 Eh           77035.75177 eV
Virial Ratio       :          2.00070989934165

DFT components:
N(Alpha)           :       85.000011788849 electrons
N(Beta)            :       85.000011788849 electrons
N(Total)           :      170.000023577698 electrons
E(X)               :     -149.888815300955 Eh       
E(C)               :       -6.222574925721 Eh       
E(XC)              :     -156.111390226676 Eh       

---------------
SCF CONVERGENCE
---------------

  Last Energy change         ...   -5.1168e-09  Tolerance :   1.0000e-08
  Last MAX-Density change    ...    1.2236e-03  Tolerance :   1.0000e-07
  Last RMS-Density change    ...    1.2675e-05  Tolerance :   5.0000e-09
  Last DIIS Error            ...    1.0479e-03  Tolerance :   5.0000e-07
  Last Orbital Gradient      ...    8.5430e-06  Tolerance :   1.0000e-05
  Last Orbital Rotation      ...    1.0961e-04  Tolerance :   1.0000e-05


----------------
ORBITAL ENERGIES
----------------

  NO   OCC          E(Eh)            E(eV) 
   0   2.0000    -256.363594     -6976.0081 
   1   2.0000    -101.616350     -2765.1215 
   2   2.0000    -101.616340     -2765.1212 
   3   2.0000     -30.126104      -819.7730 
   4   2.0000     -25.953399      -706.2279 
   5   2.0000     -25.952350      -706.1994 
   6   2.0000     -25.951135      -706.1663 
   7   2.0000     -14.448524      -393.1643 
   8   2.0000     -14.447265      -393.1301 
   9   2.0000     -10.310345      -280.5588 
  10   2.0000     -10.309257      -280.5291 
  11   2.0000     -10.303840      -280.3818 
  12   2.0000     -10.303397      -280.3697 
  13   2.0000     -10.277031      -279.6522 
  14   2.0000     -10.276856      -279.6475 
  15   2.0000     -10.258279      -279.1420 
  16   2.0000     -10.257087      -279.1095 
  17   2.0000     -10.248379      -278.8726 
  18   2.0000     -10.248373      -278.8724 
  19   2.0000     -10.247623      -278.8520 
  20   2.0000     -10.247403      -278.8460 
  21   2.0000     -10.182695      -277.0852 
  22   2.0000     -10.157073      -276.3880 
  23   2.0000      -9.442268      -256.9372 
  24   2.0000      -9.442255      -256.9368 
  25   2.0000      -7.172471      -195.1729 
  26   2.0000      -7.172461      -195.1726 
  27   2.0000      -7.170165      -195.1101 
  28   2.0000      -7.170154      -195.1098 
  29   2.0000      -7.170116      -195.1088 
  30   2.0000      -7.170105      -195.1085 
  31   2.0000      -3.481624       -94.7398 
  32   2.0000      -2.240489       -60.9668 
  33   2.0000      -2.235037       -60.8185 
  34   2.0000      -2.234940       -60.8158 
  35   2.0000      -1.033497       -28.1229 
  36   2.0000      -1.008383       -27.4395 
  37   2.0000      -0.921884       -25.0857 
  38   2.0000      -0.882397       -24.0112 
  39   2.0000      -0.881060       -23.9748 
  40   2.0000      -0.850007       -23.1299 
  41   2.0000      -0.838533       -22.8176 
  42   2.0000      -0.797897       -21.7119 
  43   2.0000      -0.787225       -21.4215 
  44   2.0000      -0.747854       -20.3501 
  45   2.0000      -0.743460       -20.2306 
  46   2.0000      -0.725361       -19.7381 
  47   2.0000      -0.702605       -19.1188 
  48   2.0000      -0.693425       -18.8691 
  49   2.0000      -0.681427       -18.5426 
  50   2.0000      -0.630983       -17.1699 
  51   2.0000      -0.604169       -16.4403 
  52   2.0000      -0.574654       -15.6371 
  53   2.0000      -0.553783       -15.0692 
  54   2.0000      -0.547601       -14.9010 
  55   2.0000      -0.539728       -14.6868 
  56   2.0000      -0.515751       -14.0343 
  57   2.0000      -0.507324       -13.8050 
  58   2.0000      -0.494280       -13.4500 
  59   2.0000      -0.487278       -13.2595 
  60   2.0000      -0.476711       -12.9720 
  61   2.0000      -0.471524       -12.8308 
  62   2.0000      -0.467705       -12.7269 
  63   2.0000      -0.456979       -12.4350 
  64   2.0000      -0.456432       -12.4202 
  65   2.0000      -0.441925       -12.0254 
  66   2.0000      -0.429225       -11.6798 
  67   2.0000      -0.422081       -11.4854 
  68   2.0000      -0.406766       -11.0687 
  69   2.0000      -0.389395       -10.5960 
  70   2.0000      -0.369119       -10.0442 
  71   2.0000      -0.351622        -9.5681 
  72   2.0000      -0.350172        -9.5287 
  73   2.0000      -0.348083        -9.4718 
  74   2.0000      -0.326813        -8.8930 
  75   2.0000      -0.322207        -8.7677 
  76   2.0000      -0.299003        -8.1363 
  77   2.0000      -0.290689        -7.9101 
  78   2.0000      -0.288994        -7.8639 
  79   2.0000      -0.281333        -7.6555 
  80   2.0000      -0.275651        -7.5009 
  81   2.0000      -0.266086        -7.2406 
  82   2.0000      -0.254431        -6.9234 
  83   2.0000      -0.226741        -6.1699 
  84   2.0000      -0.207287        -5.6406 
  85   0.0000      -0.092230        -2.5097 
  86   0.0000      -0.084688        -2.3045 
  87   0.0000      -0.061784        -1.6812 
  88   0.0000      -0.057929        -1.5763 
  89   0.0000      -0.042587        -1.1589 
  90   0.0000      -0.018465        -0.5025 
  91   0.0000       0.032191         0.8760 
  92   0.0000       0.046564         1.2671 
  93   0.0000       0.056730         1.5437 
  94   0.0000       0.059257         1.6125 
  95   0.0000       0.073050         1.9878 
*Only the first 10 virtual orbitals were printed.

                    ********************************
                    * MULLIKEN POPULATION ANALYSIS *
                    ********************************

-----------------------
MULLIKEN ATOMIC CHARGES
-----------------------
   0 C :    0.116511
   1 C :   -0.159358
   2 H :    0.133522
   3 C :   -0.154878
   4 H :    0.133166
   5 C :    0.174769
   6 C :    0.152242
   7 C :   -0.237295
   8 H :    0.119869
   9 C :   -0.227302
  10 H :    0.119240
  11 C :    0.195961
  12 C :    0.156452
  13 C :   -0.149181
  14 H :    0.134501
  15 C :   -0.154565
  16 H :    0.138178
  17 C :    0.135039
  18 C :   -0.324650
  19 C :   -0.347145
  20 N :   -0.097609
  21 N :   -0.109986
  22 Cl:   -0.505797
  23 Fe:    0.409033
  24 H :    0.139529
  25 H :    0.136701
  26 H :    0.156298
  27 H :    0.129566
  28 Cl:   -0.505809
  29 H :    0.136699
  30 H :    0.156297
Sum of atomic charges:   -0.0000000

--------------------------------
MULLIKEN REDUCED ORBITAL CHARGES
--------------------------------
  0 C s       :     3.197235  s :     3.197235
      pz      :     0.881752  p :     2.482538
      px      :     0.820982
      py      :     0.779805
      dz2     :     0.044501  d :     0.189317
      dxz     :     0.032051
      dyz     :     0.060307
      dx2y2   :     0.022115
      dxy     :     0.030343
      f0      :     0.001514  f :     0.014398
      f+1     :     0.001156
      f-1     :     0.005036
      f+2     :     0.001568
      f-2     :     0.001797
      f+3     :     0.002056
      f-3     :     0.001271

  1 C s       :     3.148490  s :     3.148490
      pz      :     0.996816  p :     2.921701
      px      :     0.983464
      py      :     0.941421
      dz2     :     0.012422  d :     0.081576
      dxz     :     0.016959
      dyz     :     0.036195
      dx2y2   :     0.008106
      dxy     :     0.007893
      f0      :     0.000690  f :     0.007592
      f+1     :     0.001584
      f-1     :     0.002428
      f+2     :     0.000914
      f-2     :     0.000313
      f+3     :     0.000920
      f-3     :     0.000743

  2 H s       :     0.840097  s :     0.840097
      pz      :     0.008125  p :     0.026381
      px      :     0.007104
      py      :     0.011152

  3 C s       :     3.177662  s :     3.177662
      pz      :     0.982572  p :     2.879005
      px      :     0.920477
      py      :     0.975955
      dz2     :     0.016782  d :     0.090538
      dxz     :     0.023308
      dyz     :     0.033153
      dx2y2   :     0.008026
      dxy     :     0.009268
      f0      :     0.000728  f :     0.007672
      f+1     :     0.001570
      f-1     :     0.002490
      f+2     :     0.000811
      f-2     :     0.000509
      f+3     :     0.000856
      f-3     :     0.000709

  4 H s       :     0.840949  s :     0.840949
      pz      :     0.007602  p :     0.025885
      px      :     0.006463
      py      :     0.011820

  5 C s       :     3.194096  s :     3.194096
      pz      :     0.734517  p :     2.489989
      px      :     0.927876
      py      :     0.827595
      dz2     :     0.031678  d :     0.130834
      dxz     :     0.026938
      dyz     :     0.036401
      dx2y2   :     0.014340
      dxy     :     0.021478
      f0      :     0.001247  f :     0.010311
      f+1     :     0.001244
      f-1     :     0.003599
      f+2     :     0.000892
      f-2     :     0.001041
      f+3     :     0.001492
      f-3     :     0.000797

  6 C s       :     3.226683  s :     3.226683
      pz      :     0.714243  p :     2.430313
      px      :     0.924618
      py      :     0.791453
      dz2     :     0.037170  d :     0.176727
      dxz     :     0.035382
      dyz     :     0.066670
      dx2y2   :     0.013050
      dxy     :     0.024456
      f0      :     0.002270  f :     0.014035
      f+1     :     0.002347
      f-1     :     0.005079
      f+2     :     0.000903
      f-2     :     0.000954
      f+3     :     0.001566
      f-3     :     0.000917

  7 C s       :     3.245389  s :     3.245389
      pz      :     0.942192  p :     2.897938
      px      :     0.969123
      py      :     0.986623
      dz2     :     0.021487  d :     0.086410
      dxz     :     0.020656
      dyz     :     0.023021
      dx2y2   :     0.010835
      dxy     :     0.010411
      f0      :     0.000932  f :     0.007558
      f+1     :     0.001160
      f-1     :     0.002407
      f+2     :     0.000701
      f-2     :     0.000392
      f+3     :     0.001267
      f-3     :     0.000699

  8 H s       :     0.853974  s :     0.853974
      pz      :     0.008108  p :     0.026157
      px      :     0.007073
      py      :     0.010976

  9 C s       :     3.239430  s :     3.239430
      pz      :     0.968505  p :     2.894447
      px      :     0.969024
      py      :     0.956918
      dz2     :     0.024836  d :     0.085888
      dxz     :     0.004718
      dyz     :     0.020038
      dx2y2   :     0.009997
      dxy     :     0.026299
      f0      :     0.000943  f :     0.007538
      f+1     :     0.000151
      f-1     :     0.002235
      f+2     :     0.000719
      f-2     :     0.000977
      f+3     :     0.001681
      f-3     :     0.000831

 10 H s       :     0.854561  s :     0.854561
      pz      :     0.012875  p :     0.026199
      px      :     0.007111
      py      :     0.006212

 11 C s       :     3.177392  s :     3.177392
      pz      :     0.810091  p :     2.486034
      px      :     0.927003
      py      :     0.748940
      dz2     :     0.034001  d :     0.130298
      dxz     :     0.020284
      dyz     :     0.029544
      dx2y2   :     0.018610
      dxy     :     0.027860
      f0      :     0.001039  f :     0.010315
      f+1     :     0.001353
      f-1     :     0.003554
      f+2     :     0.001001
      f-2     :     0.000763
      f+3     :     0.001654
      f-3     :     0.000952

 12 C s       :     3.227960  s :     3.227960
      pz      :     0.745005  p :     2.423619
      px      :     0.922938
      py      :     0.755675
      dz2     :     0.045866  d :     0.177807
      dxz     :     0.026744
      dyz     :     0.057973
      dx2y2   :     0.014224
      dxy     :     0.032999
      f0      :     0.001270  f :     0.014163
      f+1     :     0.001354
      f-1     :     0.005076
      f+2     :     0.001613
      f-2     :     0.001554
      f+3     :     0.001987
      f-3     :     0.001308

 13 C s       :     3.178769  s :     3.178769
      pz      :     1.008065  p :     2.874611
      px      :     0.917656
      py      :     0.948890
      dz2     :     0.024516  d :     0.088194
      dxz     :     0.005126
      dyz     :     0.021229
      dx2y2   :     0.010501
      dxy     :     0.026821
      f0      :     0.000968  f :     0.007607
      f+1     :     0.000185
      f-1     :     0.002302
      f+2     :     0.000685
      f-2     :     0.001080
      f+3     :     0.001617
      f-3     :     0.000770

 14 H s       :     0.839601  s :     0.839601
      pz      :     0.013041  p :     0.025898
      px      :     0.006427
      py      :     0.006431

 15 C s       :     3.165838  s :     3.165838
      pz      :     0.935590  p :     2.901939
      px      :     0.979473
      py      :     0.986876
      dz2     :     0.025086  d :     0.079198
      dxz     :     0.015160
      dyz     :     0.018865
      dx2y2   :     0.010948
      dxy     :     0.009138
      f0      :     0.000867  f :     0.007590
      f+1     :     0.001240
      f-1     :     0.002452
      f+2     :     0.000741
      f-2     :     0.000471
      f+3     :     0.001073
      f-3     :     0.000747

 16 H s       :     0.835437  s :     0.835437
      pz      :     0.007842  p :     0.026385
      px      :     0.007035
      py      :     0.011508

 17 C s       :     3.198042  s :     3.198042
      pz      :     0.801114  p :     2.468072
      px      :     0.830517
      py      :     0.836441
      dz2     :     0.053234  d :     0.184480
      dxz     :     0.025451
      dyz     :     0.057179
      dx2y2   :     0.014017
      dxy     :     0.034600
      f0      :     0.001247  f :     0.014366
      f+1     :     0.001309
      f-1     :     0.005156
      f+2     :     0.001620
      f-2     :     0.001590
      f+3     :     0.002121
      f-3     :     0.001323

 18 C s       :     3.174391  s :     3.174391
      pz      :     0.871653  p :     3.101704
      px      :     1.151099
      py      :     1.078952
      dz2     :     0.005585  d :     0.045472
      dxz     :     0.016478
      dyz     :     0.014829
      dx2y2   :     0.002176
      dxy     :     0.006403
      f0      :     0.001078  f :     0.003083
      f+1     :     0.000656
      f-1     :     0.000872
      f+2     :    -0.000117
      f-2     :     0.000053
      f+3     :     0.000134
      f-3     :     0.000407

 19 C s       :     3.129357  s :     3.129357
      pz      :     1.077756  p :     3.171430
      px      :     1.112172
      py      :     0.981503
      dz2     :     0.016424  d :     0.043675
      dxz     :     0.003969
      dyz     :     0.004385
      dx2y2   :     0.002409
      dxy     :     0.016488
      f0      :     0.000474  f :     0.002683
      f+1     :    -0.000054
      f-1     :     0.000802
      f+2     :     0.000201
      f-2     :     0.000243
      f+3     :     0.000331
      f-3     :     0.000686

 20 N s       :     3.517140  s :     3.517140
      pz      :     1.067255  p :     3.500765
      px      :     1.210440
      py      :     1.223070
      dz2     :     0.021786  d :     0.075739
      dxz     :     0.013295
      dyz     :     0.021831
      dx2y2   :     0.007121
      dxy     :     0.011706
      f0      :     0.000717  f :     0.003966
      f+1     :     0.000690
      f-1     :     0.001120
      f+2     :     0.000327
      f-2     :     0.000345
      f+3     :     0.000467
      f-3     :     0.000299

 21 N s       :     3.516860  s :     3.516860
      pz      :     1.309782  p :     3.512559
      px      :     1.206429
      py      :     0.996347
      dz2     :     0.014795  d :     0.076538
      dxz     :     0.009817
      dyz     :     0.023561
      dx2y2   :     0.012673
      dxy     :     0.015693
      f0      :     0.000227  f :     0.004029
      f+1     :     0.000089
      f-1     :     0.001001
      f+2     :     0.000688
      f-2     :     0.000577
      f+3     :     0.000872
      f-3     :     0.000574

 22 Cls       :     5.953976  s :     5.953976
      pz      :     3.828813  p :    11.526672
      px      :     3.818671
      py      :     3.879188
      dz2     :     0.004007  d :     0.023531
      dxz     :     0.005488
      dyz     :     0.001391
      dx2y2   :     0.007597
      dxy     :     0.005049
      f0      :     0.000153  f :     0.001618
      f+1     :     0.000306
      f-1     :     0.000037
      f+2     :     0.000319
      f-2     :     0.000164
      f+3     :     0.000371
      f-3     :     0.000267

 23 Fes       :     6.469030  s :     6.469030
      pz      :     4.176732  p :    12.544404
      px      :     4.207264
      py      :     4.160408
      dz2     :     0.610852  d :     6.576826
      dxz     :     1.940738
      dyz     :     1.576398
      dx2y2   :     0.467802
      dxy     :     1.981036
      f0      :     0.000163  f :     0.000707
      f+1     :     0.000089
      f-1     :     0.000054
      f+2     :     0.000117
      f-2     :     0.000065
      f+3     :     0.000099
      f-3     :     0.000120

 24 H s       :     0.826875  s :     0.826875
      pz      :     0.012717  p :     0.033596
      px      :     0.011280
      py      :     0.009599

 25 H s       :     0.831223  s :     0.831223
      pz      :     0.010838  p :     0.032076
      px      :     0.011486
      py      :     0.009751

 26 H s       :     0.816956  s :     0.816956
      pz      :     0.006678  p :     0.026746
      px      :     0.011070
      py      :     0.008997

 27 H s       :     0.840667  s :     0.840667
      pz      :     0.009835  p :     0.029768
      px      :     0.010115
      py      :     0.009818

 28 Cls       :     5.953976  s :     5.953976
      pz      :     3.828831  p :    11.526691
      px      :     3.818660
      py      :     3.879200
      dz2     :     0.004006  d :     0.023525
      dxz     :     0.005486
      dyz     :     0.001390
      dx2y2   :     0.007595
      dxy     :     0.005047
      f0      :     0.000153  f :     0.001617
      f+1     :     0.000306
      f-1     :     0.000037
      f+2     :     0.000319
      f-2     :     0.000164
      f+3     :     0.000371
      f-3     :     0.000266

 29 H s       :     0.831227  s :     0.831227
      pz      :     0.010836  p :     0.032074
      px      :     0.011487
      py      :     0.009750

 30 H s       :     0.816959  s :     0.816959
      pz      :     0.006677  p :     0.026744
      px      :     0.011071
      py      :     0.008996



                     *******************************
                     * LOEWDIN POPULATION ANALYSIS *
                     *******************************

----------------------
LOEWDIN ATOMIC CHARGES
----------------------
   0 C :   -0.124812
   1 C :   -0.071294
   2 H :    0.113312
   3 C :   -0.043279
   4 H :    0.114687
   5 C :   -0.070489
   6 C :   -0.085910
   7 C :   -0.063949
   8 H :    0.112695
   9 C :   -0.063066
  10 H :    0.112251
  11 C :   -0.069939
  12 C :   -0.089218
  13 C :   -0.038163
  14 H :    0.113602
  15 C :   -0.066592
  16 H :    0.113391
  17 C :   -0.111903
  18 C :   -0.164107
  19 C :   -0.127537
  20 N :    0.272989
  21 N :    0.279214
  22 Cl:   -0.095380
  23 Fe:   -0.418014
  24 H :    0.089487
  25 H :    0.081514
  26 H :    0.136187
  27 H :    0.041987
  28 Cl:   -0.095447
  29 H :    0.081564
  30 H :    0.136219

-------------------------------
LOEWDIN REDUCED ORBITAL CHARGES
-------------------------------
  0 C s       :     2.715824  s :     2.715824
      pz      :     0.975404  p :     2.724244
      px      :     0.769293
      py      :     0.979547
      dz2     :     0.156131  d :     0.607376
      dxz     :     0.085825
      dyz     :     0.181510
      dx2y2   :     0.094077
      dxy     :     0.089833
      f0      :     0.007262  f :     0.077368
      f+1     :     0.006108
      f-1     :     0.029402
      f+2     :     0.009222
      f-2     :     0.011113
      f+3     :     0.006350
      f-3     :     0.007911

  1 C s       :     2.722038  s :     2.722038
      pz      :     1.047974  p :     2.929391
      px      :     0.881061
      py      :     1.000356
      dz2     :     0.090232  d :     0.374951
      dxz     :     0.054060
      dyz     :     0.163392
      dx2y2   :     0.040842
      dxy     :     0.026425
      f0      :     0.008218  f :     0.044914
      f+1     :     0.006378
      f-1     :     0.015961
      f+2     :     0.005044
      f-2     :     0.002318
      f+3     :     0.002878
[...]
 28:    465.91   0.000000    0.00  0.000000  ( 0.000006 -0.000039 -0.000012)
 29:    482.62   0.001418    7.17  0.000917  (-0.030275  0.000147  0.000514)
 30:    509.23   0.000065    0.33  0.000040  ( 0.000186 -0.003166  0.005455)
 31:    537.41   0.000000    0.00  0.000000  ( 0.000000  0.000029  0.000054)
 32:    568.30   0.001971    9.96  0.001082  ( 0.032894 -0.000262 -0.000381)
 33:    599.65   0.000000    0.00  0.000000  ( 0.000002  0.000033  0.000040)
 34:    656.28   0.000000    0.00  0.000000  (-0.000017 -0.000009 -0.000032)
 35:    676.28   0.000016    0.08  0.000007  (-0.000028 -0.002338 -0.001378)
 36:    697.14   0.000092    0.47  0.000041  (-0.000082 -0.005568 -0.003213)
 37:    710.55   0.000589    2.97  0.000258  ( 0.000266 -0.008107  0.013881)
 38:    750.82   0.002841   14.36  0.001181  ( 0.034361 -0.000250 -0.000451)
 39:    794.63   0.000663    3.35  0.000260  ( 0.016131 -0.000110 -0.000239)
 40:    824.64   0.000000    0.00  0.000000  ( 0.000036  0.000047  0.000010)
 41:    832.00   0.000318    1.61  0.000119  (-0.000184  0.005504 -0.009429)
 42:    836.22   0.000421    2.13  0.000157  ( 0.000167  0.010802  0.006347)
 43:    856.22   0.000000    0.00  0.000000  (-0.000146 -0.000031  0.000018)
 44:    868.16   0.011543   58.33  0.004149  ( 0.064406 -0.000463 -0.000854)
 45:    948.74   0.002058   10.40  0.000677  (-0.000335 -0.022446 -0.013157)
 46:    964.96   0.000000    0.00  0.000000  (-0.000041  0.000023  0.000008)
 47:    966.29   0.000222    1.12  0.000072  (-0.000021  0.004274 -0.007306)
 48:    984.44   0.000392    1.98  0.000124  ( 0.011148 -0.000067 -0.000072)
 49:    985.88   0.000001    0.00  0.000000  ( 0.000467  0.000023 -0.000011)
 50:   1019.22   0.000051    0.26  0.000016  ( 0.000021  0.003474  0.001877)
 51:   1052.21   0.002405   12.15  0.000713  (-0.000142  0.013443 -0.023077)
 52:   1057.81   0.000439    2.22  0.000130  (-0.011379  0.000205  0.000249)
 53:   1058.25   0.001967    9.94  0.000580  ( 0.024085 -0.000163  0.000031)
 54:   1140.82   0.000011    0.06  0.000003  ( 0.000087 -0.000892  0.001518)
 55:   1153.99   0.000256    1.29  0.000069  (-0.000113 -0.007177 -0.004200)
 56:   1169.80   0.000119    0.60  0.000032  ( 0.000047 -0.002903  0.004815)
 57:   1175.13   0.001742    8.80  0.000463  ( 0.000282  0.018554  0.010871)
 58:   1248.41   0.002160   10.92  0.000540  (-0.000225  0.011700 -0.020075)
 59:   1257.00   0.002081   10.52  0.000517  ( 0.000199 -0.011480  0.019616)
 60:   1260.18   0.000040    0.20  0.000010  ( 0.000043  0.002680  0.001648)
 61:   1282.09   0.000231    1.17  0.000056  (-0.000109 -0.006486 -0.003774)
 62:   1336.40   0.000593    3.00  0.000139  ( 0.000168 -0.005966  0.010145)
 63:   1361.53   0.001575    7.96  0.000361  ( 0.000198 -0.009572  0.016414)
 64:   1381.41   0.002195   11.09  0.000496  ( 0.000266  0.019238  0.011214)
 65:   1403.36   0.003121   15.77  0.000694  ( 0.000291 -0.013397  0.022684)
 66:   1405.49   0.000056    0.28  0.000012  (-0.000095 -0.002514 -0.002483)
 67:   1417.04   0.003202   16.18  0.000705  ( 0.000328  0.022889  0.013462)
 68:   1456.19   0.000001    0.00  0.000000  (-0.000075 -0.000312 -0.000171)
 69:   1464.04   0.000042    0.21  0.000009  (-0.002988  0.000137  0.000113)
 70:   1465.02   0.004077   20.61  0.000869  (-0.029470  0.000077  0.000191)
 71:   1477.35   0.000446    2.26  0.000094  (-0.000149 -0.005141  0.008235)
 72:   1487.18   0.004799   24.25  0.001007  (-0.000275  0.015540 -0.027665)
 73:   1490.72   0.010781   54.48  0.002257  ( 0.000502  0.041162  0.023712)
 74:   1509.53   0.003659   18.49  0.000756  ( 0.000282 -0.013978  0.023684)
 75:   1558.79   0.002469   12.48  0.000494  ( 0.000141 -0.011293  0.019151)
 76:   1563.66   0.006990   35.33  0.001395  (-0.000482 -0.032221 -0.018887)
 77:   1629.82   0.000082    0.41  0.000016  (-0.000048 -0.003414 -0.002000)
 78:   1647.00   0.005702   28.81  0.001080  ( 0.000251 -0.016592  0.028371)
 79:   1674.82   0.002888   14.59  0.000538  ( 0.000297  0.020005  0.011738)
 80:   1692.03   0.001965    9.93  0.000362  (-0.000157  0.009615 -0.016431)
 81:   3043.50   0.000424    2.14  0.000043  (-0.000064 -0.005834 -0.003073)
 82:   3044.45   0.000844    4.27  0.000087  ( 0.000132  0.007933  0.004854)
 83:   3107.42   0.000007    0.03  0.000001  (-0.000827 -0.000010 -0.000034)
 84:   3108.36   0.000002    0.01  0.000000  (-0.000413  0.000155  0.000116)
 85:   3157.20   0.002441   12.34  0.000241  ( 0.000201  0.010065  0.011831)
 86:   3158.46   0.002366   11.95  0.000234  ( 0.000143  0.015040  0.002739)
 87:   3192.74   0.000017    0.09  0.000002  (-0.000016 -0.001132 -0.000640)
 88:   3199.17   0.000236    1.19  0.000023  (-0.000008  0.003878 -0.002822)
 89:   3199.24   0.000445    2.25  0.000043  ( 0.000069 -0.002106  0.006242)
 90:   3209.26   0.002073   10.48  0.000202  (-0.000119  0.007156 -0.012264)
 91:   3220.72   0.001140    5.76  0.000110  ( 0.000128  0.009495  0.004498)
 92:   3220.94   0.000581    2.94  0.000056  ( 0.000108  0.005765  0.004799)

* The epsilon (eps) is given for a Dirac delta lineshape.
** The dipole moment derivative (T) already includes vibrational overlap.

The first frequency considered to be a vibration is 6
The total number of vibrations considered is 87


--------------------------
THERMOCHEMISTRY AT 298.15K
--------------------------

Temperature         ...   298.15 K
Pressure            ...     1.00 atm
Total Mass          ...   335.02 AMU
Quasi RRHO          ...     True
Cut-Off Frequency   ...     1.00 cm^-1

Throughout the following assumptions are being made:
  (1) The electronic state is orbitally nondegenerate
  (2) There are no thermally accessible electronically excited states
  (3) Hindered rotations indicated by low frequency modes are not
      treated as such but are treated as vibrations and this may
      cause some error
  (4) All equations used are the standard statistical mechanics
      equations for an ideal gas
  (5) All vibrations are strictly harmonic

freq.      41.11  E(vib)   ...       0.54 
freq.      57.67  E(vib)   ...       0.51 
freq.      72.65  E(vib)   ...       0.49 
freq.      89.21  E(vib)   ...       0.47 
freq.     102.12  E(vib)   ...       0.46 
freq.     103.15  E(vib)   ...       0.46 
freq.     139.84  E(vib)   ...       0.41 
freq.     144.01  E(vib)   ...       0.41 
freq.     152.02  E(vib)   ...       0.40 
freq.     184.88  E(vib)   ...       0.37 
freq.     185.57  E(vib)   ...       0.37 
freq.     236.28  E(vib)   ...       0.32 
freq.     264.40  E(vib)   ...       0.29 
freq.     265.52  E(vib)   ...       0.29 
freq.     290.25  E(vib)   ...       0.27 
freq.     335.47  E(vib)   ...       0.24 
freq.     349.05  E(vib)   ...       0.23 
freq.     349.61  E(vib)   ...       0.23 
freq.     397.21  E(vib)   ...       0.20 
freq.     420.00  E(vib)   ...       0.18 
freq.     447.43  E(vib)   ...       0.17 
freq.     462.82  E(vib)   ...       0.16 
freq.     465.91  E(vib)   ...       0.16 
freq.     482.62  E(vib)   ...       0.15 
freq.     509.23  E(vib)   ...       0.14 
freq.     537.41  E(vib)   ...       0.12 
freq.     568.30  E(vib)   ...       0.11 
freq.     599.65  E(vib)   ...       0.10 
freq.     656.28  E(vib)   ...       0.08 
freq.     676.28  E(vib)   ...       0.08 
freq.     697.14  E(vib)   ...       0.07 
freq.     710.55  E(vib)   ...       0.07 
freq.     750.82  E(vib)   ...       0.06 
freq.     794.63  E(vib)   ...       0.05 
freq.     824.64  E(vib)   ...       0.04 
freq.     832.00  E(vib)   ...       0.04 
freq.     836.22  E(vib)   ...       0.04 
freq.     856.22  E(vib)   ...       0.04 
freq.     868.16  E(vib)   ...       0.04 
freq.     948.74  E(vib)   ...       0.03 
freq.     964.96  E(vib)   ...       0.03 
freq.     966.29  E(vib)   ...       0.03 
freq.     984.44  E(vib)   ...       0.02 
freq.     985.88  E(vib)   ...       0.02 
freq.    1019.22  E(vib)   ...       0.02 
freq.    1052.21  E(vib)   ...       0.02 
freq.    1057.81  E(vib)   ...       0.02 
freq.    1058.25  E(vib)   ...       0.02 
freq.    1140.82  E(vib)   ...       0.01 
freq.    1153.99  E(vib)   ...       0.01 
freq.    1169.80  E(vib)   ...       0.01 
freq.    1175.13  E(vib)   ...       0.01 
freq.    1248.41  E(vib)   ...       0.01 
freq.    1257.00  E(vib)   ...       0.01 
freq.    1260.18  E(vib)   ...       0.01 
freq.    1282.09  E(vib)   ...       0.01 
freq.    1336.40  E(vib)   ...       0.01 
freq.    1361.53  E(vib)   ...       0.01 
freq.    1381.41  E(vib)   ...       0.01 
freq.    1403.36  E(vib)   ...       0.00 
freq.    1405.49  E(vib)   ...       0.00 
freq.    1417.04  E(vib)   ...       0.00 
freq.    1456.19  E(vib)   ...       0.00 
freq.    1464.04  E(vib)   ...       0.00 
freq.    1465.02  E(vib)   ...       0.00 
freq.    1477.35  E(vib)   ...       0.00 
freq.    1487.18  E(vib)   ...       0.00 
freq.    1490.72  E(vib)   ...       0.00 
freq.    1509.53  E(vib)   ...       0.00 
freq.    1558.79  E(vib)   ...       0.00 
freq.    1563.66  E(vib)   ...       0.00 
freq.    1629.82  E(vib)   ...       0.00 
freq.    1647.00  E(vib)   ...       0.00 
freq.    1674.82  E(vib)   ...       0.00 
freq.    1692.03  E(vib)   ...       0.00 
freq.    3043.50  E(vib)   ...       0.00 
freq.    3044.45  E(vib)   ...       0.00 
freq.    3107.42  E(vib)   ...       0.00 
freq.    3108.36  E(vib)   ...       0.00 
freq.    3157.20  E(vib)   ...       0.00 
freq.    3158.46  E(vib)   ...       0.00 
freq.    3192.74  E(vib)   ...       0.00 
freq.    3199.17  E(vib)   ...       0.00 
freq.    3199.24  E(vib)   ...       0.00 
freq.    3209.26  E(vib)   ...       0.00 
freq.    3220.72  E(vib)   ...       0.00 
freq.    3220.94  E(vib)   ...       0.00 

------------
INNER ENERGY
------------

The inner energy is: U= E(el) + E(ZPE) + E(vib) + E(rot) + E(trans)
    E(el)   - is the total energy from the electronic structure calculation
              = E(kin-el) + E(nuc-el) + E(el-el) + E(nuc-nuc)
    E(ZPE)  - the the zero temperature vibrational energy from the frequency calculation
    E(vib)  - the the finite temperature correction to E(ZPE) due to population
              of excited vibrational states
    E(rot)  - is the rotational thermal energy
    E(trans)- is the translational thermal energy

Summary of contributions to the inner energy U:
Electronic energy                ...  -2833.45171156 Eh
Zero point energy                ...      0.23183641 Eh     145.48 kcal/mol
Thermal vibrational correction   ...      0.01468349 Eh       9.21 kcal/mol
Thermal rotational correction    ...      0.00141627 Eh       0.89 kcal/mol
Thermal translational correction ...      0.00141627 Eh       0.89 kcal/mol
-----------------------------------------------------------------------
Total thermal energy                  -2833.20235911 Eh


Summary of corrections to the electronic energy:
(perhaps to be used in another calculation)
Total thermal correction                  0.01751603 Eh      10.99 kcal/mol
Non-thermal (ZPE) correction              0.23183641 Eh     145.48 kcal/mol
-----------------------------------------------------------------------
Total correction                          0.24935245 Eh     156.47 kcal/mol


--------
ENTHALPY
--------

The enthalpy is H = U + kB*T
                kB is Boltzmann's constant
Total thermal energy              ...  -2833.20235911 Eh 
Thermal Enthalpy correction       ...      0.00094421 Eh       0.59 kcal/mol
-----------------------------------------------------------------------
Total Enthalpy                    ...  -2833.20141490 Eh


Note: Only C1 symmetry has been detected, increase convergence thresholds 
      if your molecule has a higher symmetry. Symmetry factor of 1.0 is   
      used for the rotational entropy correction. 
 

Note: Rotational entropy computed according to Herzberg 
Infrared and Raman Spectra, Chapter V,1, Van Nostrand Reinhold, 1945 
Point Group:  C1, Symmetry Number:   1  
Rotational constants in cm-1:     0.011619     0.011256     0.007314 

Vibrational entropy computed according to the QRRHO of S. Grimme
Chem.Eur.J. 2012 18 9955 using a reference frequency of 100.0 cm-1


-------
ENTROPY
-------

The entropy contributions are T*S = T*(S(el)+S(vib)+S(rot)+S(trans))
     S(el)   - electronic entropy
     S(vib)  - vibrational entropy
     S(rot)  - rotational entropy
     S(trans)- translational entropy
The entropies will be listed as multiplied by the temperature to get
units of energy

Electronic entropy                ...      0.00000000 Eh      0.00 kcal/mol
Vibrational entropy               ...      0.02567989 Eh     16.11 kcal/mol
Rotational entropy                ...      0.01605394 Eh     10.07 kcal/mol
Translational entropy             ...      0.02058354 Eh     12.92 kcal/mol
-----------------------------------------------------------------------
Final entropy term                ...      0.06231738 Eh     39.10 kcal/mol

In case the symmetry of your molecule has not been determined correctly
or in case you have a reason to use a different symmetry number we print 
out the resulting rotational entropy values for sn=1,12:

 non-linear molecules -----------------------------------
|  sn= 1 | S(rot)=       0.01605394 Eh     10.07 kcal/mol|
|  sn= 2 | S(rot)=       0.01539949 Eh      9.66 kcal/mol|
|  sn= 3 | S(rot)=       0.01501666 Eh      9.42 kcal/mol|
|  sn= 4 | S(rot)=       0.01474503 Eh      9.25 kcal/mol|
|  sn= 5 | S(rot)=       0.01453434 Eh      9.12 kcal/mol|
|  sn= 6 | S(rot)=       0.01436220 Eh      9.01 kcal/mol|
|  sn= 7 | S(rot)=       0.01421665 Eh      8.92 kcal/mol|
|  sn= 8 | S(rot)=       0.01409057 Eh      8.84 kcal/mol|
|  sn= 9 | S(rot)=       0.01397937 Eh      8.77 kcal/mol|
|  sn=10 | S(rot)=       0.01387989 Eh      8.71 kcal/mol|
|  sn=11 | S(rot)=       0.01378990 Eh      8.65 kcal/mol|
|  sn=12 | S(rot)=       0.01370774 Eh      8.60 kcal/mol|
 linear molecules ---------------------------------------
|  Dinfh | S(rot)=       0.00996925 Eh      6.26 kcal/mol|
|  Cinfv | S(rot)=       0.01062370 Eh      6.67 kcal/mol|
 --------------------------------------------------------


-------------------
GIBBS FREE ENERGY
-------------------

The Gibbs free energy is G = H - T*S

Total enthalpy                    ...  -2833.20141490 Eh 
Total entropy correction          ...     -0.06231738 Eh    -39.10 kcal/mol
-----------------------------------------------------------------------
Final Gibbs free energy         ...  -2833.26373228 Eh

For completeness - the Gibbs free energy minus the electronic energy
G-E(el)                           ...      0.18797928 Eh    117.96 kcal/mol


Maximum memory used throughout the entire PROP-calculation: 363.2 MB

--------------------------------
SUGGESTED CITATIONS FOR THIS RUN
--------------------------------

Below you find a list of papers that are relevant to this ORCA run
We neither can nor want to force you to cite these papers, but we appreciate if you do
You receive ORCA, which is the product of decades of hard work by many enthusiastic individuals, for free
The only thing we kindly ask in return is that you cite our papers,
We deeply appreciate it, if you show your appreciation for ORCA by not just citing the generic ORCA reference.

Please note that relegating all ORCA citations to the supporting information does *not* help us.
SI sections are not indexed - citations you put there will not count into any citation statistics
But we need these citations in order to attract the funding resources that allow us to do what we are doing

Therefore, if you are a happy ORCA user, please consider citing a few of the papers listed below in the main body of your paper

In addition to the list printed below, the program has created the file DAGLUU01-S5.bibtex that contains the list in bibtex format
You can import this file easily into all common literature databanks and citation aid programs


List of essential papers. We consider these as the minimum necessary citations

  1. Neese,F.
     Software update: the ORCA program system, version 5.0
     WIRES Comput. Molec. Sci., 2022 12(1)e1606
     doi.org/10.1002/wcms.1606

List of papers to cite with high priority. The work reported in these papers was absolutely
necessary for this run to complete.
Our perspective: the developers of density functionals and basis sets usually get cited in chemistry papers
Good! But without the algorithms to do something with them, the functionals or basis sets would not do anything.
Hence, in our opinion, the algorithm design and method developments papers are equally worthy of getting cited

  1. Neese,F.
     An improvement of the resolution of the identity approximation for the formation of the Coulomb matrix
     J. Comp. Chem., 2003 24(14)1740-1747
     doi.org/10.1002/jcc.10318
  2. Neese,F.; Wennmohs,F.; Hansen,A.; Becker,U.
     Efficient, approximate and parallel Hartree-Fock and hybrid DFT calculations. A 'chain-of-spheres' algorithm for the Hartree-Fock exchange
     Chem. Phys., 2009 356(1-3)98-109
     doi.org/10.1016/j.chemphys.2008.10.036
  3. Bykov,D.; Petrenko,T.; Izsak,R.; Kossmann,S.; Becker,U.; Valeev,E.; Neese,F.
     Efficient implementation of the analytic second derivatives of Hartree-Fock and hybrid DFT energies: a detailed analysis of different approximations
     Molec. Phys., 2015 113 1961-1977
     doi.org/10.1080/00268976.2015.1025114
  4. Helmich-Paris,B.; de Souza,B.; Neese,F.; Izsák,R.
     An improved chain of spheres for exchange algorithm
     J. Chem. Phys., 2021 155 104109
     doi.org/doi: 10.1063/5.0058766.
  5. Neese,F.
     The SHARK Integral Generation and Digestion System
     J. Comp. Chem., 2022  1-16
     doi.org/10.1002/jcc.26942

List of suggested additional citations. These are papers that are important in the 'surrounding' of 
of this run, or papers that preceded the highly important papers. If you like your results we are grateful for a citation.

  1. Izsak,R.; Neese,F.
     An overlap fitted chain of spheres exchange method
     J. Chem. Phys., 2011 135 144105
     doi.org/10.1063/1.3646921
  2. Izsak,R.; Hansen,A.; Neese,F.
     The resolution of identity and chain of spheres approximations for the LPNO-CCSD singles Fock term
     Molec. Phys., 2012 110 2413-2417
     doi.org/10.1080/00268976.2012.687466
  3. Neese,F.
     The ORCA program system
     WIRES Comput. Molec. Sci., 2012 2(1)73-78
     doi.org/10.1002/wcms.81
  4. Izsak,R.; Neese,F.; Klopper,W.
     Robust fitting techniques in the chain of spheres approximation to the Fock exchange: The role of the complementary space
     J. Chem. Phys., 2013 139 
     doi.org/10.1063/1.4819264
  5. Neese,F.
     Software update: the ORCA program system, version 4.0
     WIRES Comput. Molec. Sci., 2018 8(1)1-6
     doi.org/10.1002/wcms.1327
  6. Neese,F.; Wennmohs,F.; Becker,U.; Riplinger,C.
     The ORCA quantum chemistry program package
     J. Chem. Phys., 2020 152 Art. No. L224108
     doi.org/10.1063/5.0004608

List of optional additional citations

  1. Neese,F.
     Approximate second-order SCF convergence for spin unrestricted wavefunctions
     Chem. Phys. Lett., 2000 325(1-3)93-98
     doi.org/10.1016/s0009-2614(00)00662-x

Timings for individual modules:

Sum of individual times          ...     5055.663 sec (=  84.261 min)
Startup calculation              ...      203.872 sec (=   3.398 min)   4.0 %
SCF iterations                   ...     2611.357 sec (=  43.523 min)  51.7 %
Property integrals               ...      402.912 sec (=   6.715 min)   8.0 %
SCF Response                     ...      559.383 sec (=   9.323 min)  11.1 %
Property calculations            ...      440.635 sec (=   7.344 min)   8.7 %
SCF Gradient evaluation          ...      837.059 sec (=  13.951 min)  16.6 %
Geometry relaxation              ...        0.446 sec (=   0.007 min)   0.0 %
                             ****ORCA TERMINATED NORMALLY****
TOTAL RUN TIME: 0 days 1 hours 25 minutes 14 seconds 247 msec
