
                                 *****************
                                 * O   R   C   A *
                                 *****************

                                            #,                                       
                                            ###                                      
                                            ####                                     
                                            #####                                    
                                            ######                                   
                                           ########,                                 
                                     ,,################,,,,,                         
                               ,,#################################,,                 
                          ,,##########################################,,             
                       ,#########################################, ''#####,          
                    ,#############################################,,   '####,        
                  ,##################################################,,,,####,       
                ,###########''''           ''''###############################       
              ,#####''   ,,,,##########,,,,          '''####'''          '####       
            ,##' ,,,,###########################,,,                        '##       
           ' ,,###''''                  '''############,,,                           
         ,,##''                                '''############,,,,        ,,,,,,###''
      ,#''                                            '''#######################'''  
     '                                                          ''''####''''         
             ,#######,   #######,   ,#######,      ##                                
            ,#'     '#,  ##    ##  ,#'     '#,    #''#        ,####,   ,####,        
            ##       ##  ##   ,#'  ##            #'  '#       #'       #'  '#        
            ##       ##  #######   ##           ,######,      #####,   #    #        
            '#,     ,#'  ##    ##  '#,     ,#' ,#      #,     #,   #   #,  ,#        
             '#######'   ##     ##  '#######'  #'      '#     '####' # '####'        



                #########################################################
                #                        -***-                          #
                #          Department of theory and spectroscopy        #
                #                                                       #
                #                      Frank Neese                      #
                #                                                       #
                #     Directorship, Architecture, Infrastructure        #
                #                    SHARK, DRIVERS                     #
                #        Core code/Algorithms in most modules           #
                #                                                       #
                #        Max Planck Institute fuer Kohlenforschung      #
                #                Kaiser Wilhelm Platz 1                 #
                #                 D-45470 Muelheim/Ruhr                 #
                #                      Germany                          #
                #                                                       #
                #                  All rights reserved                  #
                #                        -***-                          #
                #########################################################


                         Program Version 6.0.1  -  RELEASE   -


 With contributions from (in alphabetic order):
[Max-Planck-Institut fuer Kohlenforschung]                               
  Daniel Aravena         : Magnetic Suceptibility                        
  Michael Atanasov       : Ab Initio Ligand Field Theory (pilot matlab implementation)
  Alexander A. Auer      : GIAO ZORA, VPT2 properties, NMR spectrum      
  Ute Becker             : All parallelization in ORCA, NUMFREQ, NUMCALC 
  Giovanni Bistoni       : ED, misc. LED, open-shell LED, HFLD           
  Martin Brehm           : Molecular dynamics                            
  Dmytro Bykov           : pre 5.0 version of the SCF Hessian            
  Marcos Casanova-Páez   : Triplet and SCS-CIS(D). UHF-(DLPNO)-IP/EA/STEOM-CCSD. UHF-CVS-IP/STEOM-CCSD   
  Vijay G. Chilkuri      : MRCI spin determinant printing, contributions to CSF-ICE 
  Pauline Colinet        : FMM embedding                                 
  Dipayan Datta          : RHF DLPNO-CCSD density                        
  Achintya Kumar Dutta   : EOM-CC, STEOM-CC                              
  Nicolas Foglia         : Exact transition moments, OPA infrastructure, MCD improvements    
  Dmitry Ganyushin       : Spin-Orbit,Spin-Spin,Magnetic field MRCI      
  Miquel Garcia-Rates    : C-PCM and meta-GGA Hessian, CCSD/C-PCM, Gaussian charge scheme 
  Tiago L. C. Gouveia    : GS-ROHF, GS-ROCIS                             
  Yang Guo               : DLPNO-NEVPT2, F12-NEVPT2, CIM, IAO-localization        
  Andreas Hansen         : Spin unrestricted coupled pair/coupled cluster methods 
  Ingolf Harden          : AUTO-CI MPn and infrastructure                
  Benjamin Helmich-Paris : MC-RPA, TRAH-(SCF,CASSCF), AVAS, COSX integrals, SCF dyn. polar. 
  Lee Huntington         : MR-EOM, pCC                                   
  Robert Izsak           : Overlap fitted RIJCOSX, COSX-SCS-MP3, EOM     
  Riya Kayal             : Wick's Theorem for AUTO-CI, AUTO-CI UHF-CCSDT 
  Emily Kempfer          : AUTO-CI, RHF CISDT and CCSDT                  
  Christian Kollmar      : KDIIS, OOCD, Brueckner-CCSD(T), CCSD density, CASPT2, CASPT2-K, improved NEVPT2 
  Axel Koslowski         : Symmetry handling                             
  Simone Kossmann        : meta-GGA functionals, TD-DFT gradient, OOMP2, (MP2 Hessian; deprecated post 5.0) 
  Lucas Lang             : DCDCAS                                        
  Marvin Lechner         : AUTO-CI (C++ implementation), FIC-MRCC        
  Spencer Leger          : CASSCF response                               
  Dagmar Lenk            : GEPOL surface, SMD, ORCA-2-JSON               
  Dimitrios Liakos       : Extrapolation schemes; Compound Job, initial MDCI parallelization 
  Dimitrios Manganas     : Further ROCIS development; embedding schemes. LFT, Crystal Embedding 
  Dimitrios Pantazis     : SARC Basis sets                               
  Anastasios Papadopoulos: AUTO-CI, single reference methods and gradients 
  Taras Petrenko         : pre 6.0 DFT Hessian and TD-DFT gradient, (ASA, deprecated), ECA, 1-Electron XAS/XES, NRVS 
  Peter Pinski           : DLPNO-MP2, DLPNO-MP2 Gradient                 
  Christoph Reimann      : Effective Core Potentials                     
  Marius Retegan         : Local ZFS, SOC                                
  Christoph Riplinger    : Optimizer, TS searches, QM/MM, DLPNO-CCSD(T), (RO)-DLPNO pert. Triples 
  Michael Roemelt        : Original ROCIS implementation                 
  Masaaki Saitow         : Open-shell DLPNO-CCSD energy and density      
  Barbara Sandhoefer     : DKH picture change effects                    
  Kantharuban Sivalingam : CASSCF convergence/infrastructure, NEVPT2 and variants, FIC-MRCI 
  Bernardo de Souza      : ESD, SOC TD-DFT                               
  Georgi L. Stoychev     : AutoAux, RI-MP2 NMR, DLPNO-MP2 response, X2C  
  Van Anh Tran           : RI-MP2 g-tensors                              
  Willem Van den Heuvel  : Paramagnetic NMR                              
  Zikuan Wang            : NOTCH, Electric field optimization            
  Frank Wennmohs         : Technical directorship and infrastructure     
  Hang Xu                : AUTO-CI-Response properties                   
                                                                         
[FACCTs GmbH]                                                            
  Markus Bursch, Miquel Garcia-Rates, Christoph Riplinger, Bernardo de Souza, Georgi L. Stoychev 
                                                                 
  APM, Basis sets (HGBS, AHGBS, def-TZVP (Ac-Lr), def2-XVPD (La-Lu)), CI-OPT, improved COSX, DLPNO-Multilevel,           
  DOCKER, DRACO, updates on ESD, GOAT, IRC, LR-CPCM, MBIS, meta-GGA TD-DFT gradient, ML-optimized integration grids, 
  MM, NACMEs, nearIR, NEB, NEB-TS, NL-DFT gradient (VV10), 2- and 3-layer-ONIOM, interface openCOSMO-RS, QMMM,   
  Crystal-QMMM, SF, symmetry and pop. for TD-DFT, r2SCAN hybrids, SOLVATOR                                   
                                                                         
[Other institutions]                                                     
  V. Asgeirsson          : NEB                                           
  Christoph Bannwarth    : sTDA-DFT, sTD-DFT, PBEh-3c, B97-3c, D3        
  Sebastian Ehlert       : rSCAN, r2SCAN, r2SCAN-3c, D4, dhf basis sets  
  Marvin Friede          : D4 for Fr, Ra, Ac-Lr                          
  Lars Goerigk           : TD-DFT with DH, B97 family of functionals     
  Stefan Grimme          : VdW corrections, initial TS optimization, DFT functionals, gCP, sTDA/sTD-DF 
  Waldemar Hujo          : DFT-NL                                        
  H. Jonsson             : NEB                                           
  Holger Kruse           : gCP                                           
  Marcel Mueller         : wB97X-3c, vDZP basis set                      
  Hagen Neugebauer       : wr2SCAN                                       
  Tobias Risthaus        : range-separated hybrid DFT                    
  Lukas Wittmann         : regularized MP2, r2SCAN double-hybrids, wr2SCAN        
                                                                         
We gratefully acknowledge several colleagues who have allowed us to      
interface, adapt or use parts of their codes:                            
  Ed Valeev, F. Pavosevic, A. Kumar             : LibInt (2-el integral package), F12 methods 
  Garnet Chan, S. Sharma, J. Yang, R. Olivares  : DMRG                   
  Ulf Ekstrom                                   : XCFun DFT Library      
  Mihaly Kallay                                 : mrcc  (arbitrary order and MRCC methods)
  Frank Weinhold                                : gennbo (NPA and NBO analysis)           
  Simon Mueller                                 : openCOSMO-RS                            
  Christopher J. Cramer and Donald G. Truhlar   : smd solvation model                     
  S Lehtola, MJT Oliveira, MAL Marques          : LibXC Library                           
  Liviu Ungur et al                             : ANISO software                          


 Your calculation uses the libint2 library for the computation of 2-el integrals
 For citations please refer to: http://libint.valeyev.net

 Your ORCA version has been built with support for libXC version: 6.2.2
 For citations please refer to: https://libxc.gitlab.io

 This ORCA versions uses:
   CBLAS   interface :  Fast vector & matrix operations
   LAPACKE interface :  Fast linear algebra routines
   SCALAPACK package :  Parallel linear algebra routines
   Shared memory     :  Shared parallel matrices
   BLAS/LAPACK       :  OpenBLAS 0.3.27  USE64BITINT DYNAMIC_ARCH NO_AFFINITY Cooperlake SINGLE_THREADED
        Core in use  :  Cooperlake
   Copyright (c) 2011-2014, The OpenBLAS Project


NOTE: MaxCore=3600 MB was set to SCF,MP2,MDCI,CIPSI,MRCI and CIS
      => If you want to overwrite this, your respective input block should be placed after the MaxCore statement
Warning: RI is on but no J-basis has been assigned. Assigning Def2/J (nothing to worry about!)
================================================================================

----- Orbital basis set information -----
Your calculation utilizes the basis: def2-TZVP
   F. Weigend and R. Ahlrichs, Phys. Chem. Chem. Phys. 7, 3297 (2005).

----- AuxJ basis set information -----
Your calculation utilizes the auxiliary basis: def2/J
   F. Weigend, Phys. Chem. Chem. Phys. 8, 1057 (2006).

================================================================================
                                        WARNINGS
                       Please study these warnings very carefully!
================================================================================


WARNING: Geometry Optimization
  ===> : Switching off AutoStart
         For restart on a previous wavefunction, please use MOREAD

================================================================================
                                       INPUT FILE
================================================================================
NAME = FEROCE87-S1.inp
|  1> ! PBE0 def2-TZVP  SlowConv TightOpt Freq DEFGRID3
|  2> 
|  3> %maxcore 3600
|  4> 
|  5> %pal
|  6>     nprocs 16
|  7> end
|  8> 
|  9> *xyz 0 1
| 10> Fe -6.180458795837218e-05 -6.979779267050753e-05 -0.00010101513429362595
| 11> C 0.28065535745449965 -2.0213100002602564 0.18723710254537418
| 12> H 0.5363571578571359 -2.702221016118845 -0.7765840360755016
| 13> C -0.6123413857156851 -1.5537140071896176 1.1877114286352595
| 14> H -1.598102394364374 -2.1934673277343055 0.9106164611032648
| 15> C 0.06997913529293082 -0.5798632330872957 1.964159918633443
| 16> H -0.8074888405396901 -0.26666462217603126 2.732473441267238
| 17> C 1.3845006044625356 -0.44597893654937476 1.4438187969862706
| 18> H 1.8156647661212089 0.4147174714975689 2.1732836635179353
| 19> C 1.5146131145904553 -1.3367513202581018 0.34576024451052934
| 20> H 2.646676924943262 -1.0898636965090363 0.004603995352963686
| 21> C -0.2481226804874649 2.0241265700748556 -0.20033757407889657
| 22> H 0.4956329043943223 2.7959464280905424 0.35613034758849704
| 23> C 0.6150901290522067 1.5314933759887628 -1.2147919404120433
| 24> H 1.685324401446798 1.4869512117361252 -1.772590911540389
| 25> C -0.10077557962299427 0.5633105337008554 -1.967775936955343
| 26> H -0.16982279966673874 -0.263467128960968 -2.844796220804035
| 27> C -1.4063125731945212 0.45800591996387674 -1.4189460202570419
| 28> H -2.5075510789127233 -0.03578589900120477 -1.3802621483301631
| 29> C -1.4972682942528024 1.3607562995344147 -0.3267427325326841
| 30> H -2.0959479926 1.8549844348 0.5983348801
| 31> *
| 32> 
| 33>                          ****END OF INPUT****
================================================================================

                       *****************************
                       * Geometry Optimization Run *
                       *****************************

Geometry optimization settings:
Update method            Update   .... BFGS
Choice of coordinates    CoordSys .... (2022) Redundant Internals
Initial Hessian          InHess   .... Almloef's Model
Max. no of cycles        MaxIter  .... 63

Convergence Tolerances:
Energy Change            TolE     ....  1.0000e-06 Eh
Max. Gradient            TolMAXG  ....  1.0000e-04 Eh/bohr
RMS Gradient             TolRMSG  ....  3.0000e-05 Eh/bohr
Max. Displacement        TolMAXD  ....  1.0000e-03 bohr
RMS Displacement         TolRMSD  ....  6.0000e-04 bohr
Strict Convergence                .... False

------------------------------------------------------------------------------
                        ORCA OPTIMIZATION COORDINATE SETUP
------------------------------------------------------------------------------

The optimization will be done in redundant internal coordinates (2022)
Making redundant internal coordinates   ...  (2022 redundants) done
Evaluating the initial hessian          ...  (Almloef) done
Evaluating the coordinates              ...  done
Calculating the B-matrix                .... done
Calculating the G-matrix                .... done
Diagonalizing the G-matrix              .... done
The first mode is                       ....  323
The number of degrees of freedom        ....   57

    -----------------------------------------------------------------
                    Redundant Internal Coordinates


    -----------------------------------------------------------------
         Definition                    Initial Value    Approx d2E/dq
    -----------------------------------------------------------------
      1. B(C   1,Fe  0)                  2.0492         0.561199   
      2. B(H   2,C   1)                  1.2075         0.233891   
      3. B(C   3,Fe  0)                  2.0493         0.561056   
      4. B(C   3,C   1)                  1.4202         0.559135   
      5. B(H   4,C   3)                  1.2074         0.233956   
      6. B(C   5,C   3)                  1.4201         0.559294   
      7. B(C   5,Fe  0)                  2.0492         0.561160   
      8. B(H   6,C   5)                  1.2076         0.233758   
      9. B(C   7,C   5)                  1.4201         0.559419   
     10. B(C   7,Fe  0)                  2.0496         0.560474   
     11. B(H   8,C   7)                  1.2078         0.233590   
     12. B(C   9,C   7)                  1.4199         0.559787   
     13. B(C   9,C   1)                  1.4200         0.559596   
     14. B(C   9,Fe  0)                  2.0495         0.560562   
     15. B(H  10,C   9)                  1.2079         0.233559   
     16. B(C  11,Fe  0)                  2.0491         0.561355   
     17. B(H  12,C  11)                  1.2077         0.233692   
     18. B(C  13,C  11)                  1.4202         0.559205   
     19. B(C  13,Fe  0)                  2.0493         0.561068   
     20. B(H  14,C  13)                  1.2077         0.233695   
     21. B(C  15,C  13)                  1.4202         0.559288   
     22. B(C  15,Fe  0)                  2.0492         0.561212   
     23. B(H  16,C  15)                  1.2073         0.234062   
     24. B(C  17,C  15)                  1.4201         0.559358   
     25. B(C  17,Fe  0)                  2.0495         0.560603   
     26. B(H  18,C  17)                  1.2075         0.233863   
     27. B(C  19,C  17)                  1.4199         0.559786   
     28. B(C  19,C  11)                  1.4200         0.559595   
     29. B(C  19,Fe  0)                  2.0494         0.560767   
     30. B(H  20,C  19)                  1.2077         0.233723   
     31. A(C   5,Fe  0,C  19)          111.4450         0.528885   
     32. A(C   5,Fe  0,C  11)          112.1658         0.528989   
     33. A(C   5,Fe  0,C  13)          140.2957         0.528938   
     34. A(C   1,Fe  0,C   5)           68.1994         0.528962   
     35. A(C   1,Fe  0,C  19)          140.3163         0.528892   
     36. A(C   7,Fe  0,C  11)          111.4403         0.528867   
     37. A(C   1,Fe  0,C   7)           68.1896         0.528840   
     38. A(C   9,Fe  0,C  13)          111.4449         0.528832   
     39. A(C   3,Fe  0,C  19)          112.1799         0.528866   
     40. A(C   3,Fe  0,C   9)           68.1946         0.528830   
     41. A(C   1,Fe  0,C   9)           40.5403         0.528855   
     42. A(C  11,Fe  0,C  17)           68.1923         0.528890   
     43. A(C  13,Fe  0,C  17)           68.1968         0.528839   
     44. A(C  15,Fe  0,C  19)           68.1922         0.528894   
     45. A(C   1,Fe  0,C  13)          138.6100         0.528945   
     46. A(C  11,Fe  0,C  19)           40.5421         0.528919   
     47. A(C   3,Fe  0,C  17)          111.4512         0.528837   
     48. A(C   7,Fe  0,C  15)          140.3071         0.528842   
     49. A(C  13,Fe  0,C  15)           40.5474         0.528947   
     50. A(C   9,Fe  0,C  15)          112.1889         0.528858   
     51. A(C  17,Fe  0,C  19)           40.5356         0.528786   
     52. A(C   1,Fe  0,C   3)           40.5495         0.528943   
     53. A(C  11,Fe  0,C  15)           68.2007         0.528998   
     54. A(C   5,Fe  0,C   9)           68.1895         0.528849   
     55. A(C   3,Fe  0,C   5)           40.5470         0.528936   
     56. A(C   7,Fe  0,C  13)          112.1727         0.528816   
     57. A(C   7,Fe  0,C   9)           40.5339         0.528727   
     58. A(C   3,Fe  0,C  15)          138.6167         0.528945   
     59. A(C  11,Fe  0,C  13)           40.5493         0.528973   
     60. A(C   1,Fe  0,C  15)          111.4497         0.528971   
     61. A(C   9,Fe  0,C  11)          138.6079         0.528883   
     62. A(C   7,Fe  0,C  19)          138.6126         0.528763   
     63. A(C   3,Fe  0,C   7)           68.1950         0.528814   
     64. A(C   1,Fe  0,C  17)          112.1934         0.528863   
     65. A(C  15,Fe  0,C  17)           40.5440         0.528865   
     66. A(C  13,Fe  0,C  19)           68.1963         0.528868   
     67. A(C   5,Fe  0,C  17)          138.6133         0.528856   
     68. A(C   9,Fe  0,C  17)          140.3245         0.528750   
     69. A(C   5,Fe  0,C   7)           40.5422         0.528833   
     70. A(C   3,Fe  0,C  11)          140.2980         0.528971   
     71. A(H   2,C   1,C   9)          100.1917         0.322862   
     72. A(Fe  0,C   1,C   9)           69.7416         0.469703   
     73. A(Fe  0,C   1,C   3)           69.7279         0.469632   
     74. A(C   3,C   1,C   9)          108.0007         0.418359   
     75. A(H   2,C   1,C   3)          151.7779         0.322819   
     76. A(Fe  0,C   1,H   2)          120.8141         0.359269   
     77. A(C   1,C   3,H   4)          100.2085         0.322834   
     78. A(Fe  0,C   3,H   4)          120.8385         0.359270   
     79. A(H   4,C   3,C   5)          151.7741         0.322849   
     80. A(C   1,C   3,C   5)          107.9884         0.418319   
     81. A(Fe  0,C   3,C   5)           69.7246         0.469634   
     82. A(Fe  0,C   3,C   1)           69.7226         0.469610   
     83. A(C   3,C   5,H   6)          100.1711         0.322804   
     84. A(Fe  0,C   5,H   6)          120.7721         0.359230   
     85. A(Fe  0,C   5,C   7)           69.7415         0.469669   
     86. A(Fe  0,C   5,C   3)           69.7284         0.469650   
     87. A(H   6,C   5,C   7)          151.7952         0.322815   
     88. A(C   3,C   5,C   7)          108.0026         0.418356   
     89. A(C   5,C   7,H   8)          100.1559         0.322778   
     90. A(Fe  0,C   7,H   8)          120.7705         0.359111   
     91. A(Fe  0,C   7,C   5)           69.7163         0.469564   
     92. A(H   8,C   7,C   9)          151.8110         0.322812   
     93. A(C   5,C   7,C   9)          108.0012         0.418422   
     94. A(Fe  0,C   7,C   9)           69.7314         0.469621   
     95. A(C   7,C   9,H  10)          100.1415         0.322805   
     96. A(C   1,C   9,H  10)          151.8196         0.322787   
     97. A(Fe  0,C   9,H  10)          120.7765         0.359112   
     98. A(C   1,C   9,C   7)          108.0071         0.418446   
     99. A(Fe  0,C   9,C   7)           69.7347         0.469634   
    100. A(Fe  0,C   9,C   1)           69.7181         0.469605   
    101. A(H  12,C  11,C  13)          100.1656         0.322780   
    102. A(Fe  0,C  11,C  13)           69.7306         0.469667   
    103. A(H  12,C  11,C  19)          151.8018         0.322817   
    104. A(Fe  0,C  11,H  12)          120.7788         0.359234   
    105. A(Fe  0,C  11,C  19)           69.7397         0.469727   
    106. A(C  13,C  11,C  19)          108.0019         0.418368   
    107. A(C  11,C  13,C  15)          107.9890         0.418327   
    108. A(Fe  0,C  13,C  15)           69.7237         0.469635   
    109. A(C  11,C  13,H  14)          151.8051         0.322781   
    110. A(Fe  0,C  13,H  14)          120.8116         0.359203   
    111. A(Fe  0,C  13,C  11)           69.7201         0.469622   
    112. A(H  14,C  13,C  15)          100.1758         0.322789   
    113. A(H  16,C  15,C  17)          100.2178         0.322879   
    114. A(C  13,C  15,C  17)          108.0019         0.418348   
    115. A(Fe  0,C  15,C  17)           69.7392         0.469668   
    116. A(C  13,C  15,H  16)          151.7497         0.322872   
    117. A(Fe  0,C  15,H  16)          120.8023         0.359315   
    118. A(Fe  0,C  15,C  13)           69.7290         0.469657   
    119. A(H  18,C  17,C  19)          100.1911         0.322874   
    120. A(C  15,C  17,C  19)          108.0001         0.418414   
    121. A(Fe  0,C  17,C  19)           69.7292         0.469640   
    122. A(C  15,C  17,H  18)          151.7779         0.322834   
    123. A(Fe  0,C  17,H  18)          120.8092         0.359197   
    124. A(Fe  0,C  17,C  15)           69.7168         0.469575   
    125. A(C  17,C  19,H  20)          151.7830         0.322842   
    126. A(C  11,C  19,H  20)          100.1785         0.322824   
    127. A(Fe  0,C  19,H  20)          120.7844         0.359178   
    128. A(C  11,C  19,C  17)          108.0071         0.418445   
    129. A(Fe  0,C  19,C  17)           69.7352         0.469666   
    130. A(Fe  0,C  19,C  11)           69.7181         0.469636   
    131. D(C   3,C   1,Fe  0,C   7)     81.5071         0.003399   
    132. D(H   2,C   1,Fe  0,C   5)   -171.4593         0.003399   
    133. D(H   2,C   1,Fe  0,C  19)     90.8051         0.003399   
    134. D(H   2,C   1,Fe  0,C   9)    -89.9696         0.003399   
    135. D(H   2,C   1,Fe  0,C   7)   -127.6377         0.003399   
    136. D(H   2,C   1,Fe  0,C  17)     53.3437         0.003399   
    137. D(C   3,C   1,Fe  0,C  13)   -179.2438         0.003399   
    138. D(H   2,C   1,Fe  0,C  13)    -28.3886         0.003399   
    139. D(C   3,C   1,Fe  0,C   5)     37.6855         0.003399   
    140. D(H   2,C   1,Fe  0,C   3)    150.8552         0.003399   
    141. D(C   3,C   1,Fe  0,C  15)   -141.3333         0.003399   
    142. D(H   2,C   1,Fe  0,C  15)      9.5219         0.003399   
    143. D(C   3,C   1,Fe  0,C   9)    119.1752         0.003399   
    144. D(Fe  0,C   3,C   1,H   2)   -117.8111         0.024961   
    145. D(H   4,C   3,C   1,Fe  0)    119.2582         0.024961   
    146. D(H   4,C   3,C   1,H   2)      1.4471         0.024961   
    147. D(H   4,C   3,Fe  0,C  15)    -28.3722         0.003398   
    148. D(H   4,C   3,Fe  0,C  11)     90.8101         0.003398   
    149. D(C   1,C   3,Fe  0,C  19)    143.3096         0.003398   
    150. D(H   4,C   3,Fe  0,C   1)    -89.9697         0.003398   
    151. D(H   4,C   3,Fe  0,C   9)   -127.6501         0.003398   
    152. D(C   5,C   3,C   1,Fe  0)    -59.4443         0.024961   
    153. D(H   4,C   3,Fe  0,C   5)    150.8564         0.003398   
    154. D(Fe  0,C   3,C   1,C   9)     59.4604         0.024961   
    155. D(C   1,C   3,Fe  0,C  11)   -179.2202         0.003398   
    156. D(C   5,C   3,C   1,H   2)   -177.2553         0.024961   
    157. D(C   1,C   3,Fe  0,C   5)   -119.1739         0.003398   
    158. D(H   4,C   3,C   1,C   9)    178.7186         0.024961   
    159. D(C   1,C   3,Fe  0,C  15)     61.5975         0.003398   
    160. D(C   5,C   3,C   1,C   9)      0.0162         0.024961   
    161. D(H   4,C   3,Fe  0,C   7)   -171.4625         0.003398   
    162. D(C   1,C   3,Fe  0,C   7)    -81.4928         0.003398   
    163. D(C   1,C   3,Fe  0,C   9)    -37.6804         0.003398   
    164. D(C   1,C   3,Fe  0,C  17)     99.4987         0.003398   
    165. D(C   7,C   5,C   3,C   1)     -0.0165         0.024976   
    166. D(H   6,C   5,Fe  0,C  13)     90.8118         0.003399   
    167. D(Fe  0,C   5,C   3,C   1)     59.4430         0.024976   
    168. D(H   6,C   5,C   3,C   1)    178.6424         0.024976   
    169. D(H   6,C   5,C   3,Fe  0)    119.1994         0.024976   
    170. D(C   3,C   5,Fe  0,C  17)     61.6029         0.003399   
    171. D(H   6,C   5,Fe  0,C   7)    150.8706         0.003399   
    172. D(C   3,C   5,Fe  0,C  19)     99.4841         0.003399   
    173. D(H   6,C   5,Fe  0,C  11)     53.3469         0.003399   
    174. D(H   6,C   5,Fe  0,C   1)   -127.6399         0.003399   
    175. D(C   7,C   5,C   3,H   4)   -177.3156         0.024976   
    176. D(C   7,C   5,C   3,Fe  0)    -59.4595         0.024976   
    177. D(Fe  0,C   5,C   3,H   4)   -117.8561         0.024976   
    178. D(H   6,C   5,C   3,H   4)      1.3433         0.024976   
    179. D(H   6,C   5,Fe  0,C   9)   -171.4594         0.003399   
    180. D(H   6,C   5,Fe  0,C   3)    -89.9521         0.003399   
    181. D(C   3,C   5,Fe  0,C  13)   -179.2361         0.003399   
    182. D(C   3,C   5,Fe  0,C   9)    -81.5072         0.003399   
    183. D(C   3,C   5,Fe  0,C  11)    143.2990         0.003399   
    184. D(C   3,C   5,Fe  0,C   7)   -119.1772         0.003399   
    185. D(C   3,C   5,Fe  0,C   1)    -37.6877         0.003399   
    186. D(C   5,C   7,Fe  0,C  19)     61.5799         0.003394   
    187. D(C   5,C   7,Fe  0,C   1)    -81.5156         0.003394   
    188. D(C   5,C   7,Fe  0,C   3)    -37.6854         0.003394   
    189. D(C   5,C   7,Fe  0,C   9)   -119.1895         0.003394   
    190. D(C   5,C   7,Fe  0,C  11)     99.4666         0.003394   
    191. D(C   5,C   7,Fe  0,C  13)    143.2895         0.003394   
    192. D(C   5,C   7,Fe  0,C  15)   -179.2495         0.003394   
    193. D(C   9,C   7,C   5,H   6)   -177.1956         0.024987   
    194. D(H   8,C   7,C   5,C   3)    178.6539         0.024987   
    195. D(Fe  0,C   7,C   5,H   6)   -117.7548         0.024987   
    196. D(H   8,C   7,C   5,H   6)      1.4478         0.024987   
    197. D(Fe  0,C   7,C   5,C   3)     59.4514         0.024987   
    198. D(C   9,C   7,C   5,Fe  0)    -59.4408         0.024987   
    199. D(H   8,C   7,Fe  0,C  13)     53.3626         0.003394   
    200. D(H   8,C   7,C   5,Fe  0)    119.2026         0.024987   
    201. D(H   8,C   7,Fe  0,C  11)      9.5397         0.003394   
    202. D(H   8,C   7,Fe  0,C   9)    150.8836         0.003394   
    203. D(H   8,C   7,Fe  0,C   5)    -89.9269         0.003394   
    204. D(H   8,C   7,Fe  0,C   3)   -127.6123         0.003394   
    205. D(C   9,C   7,C   5,C   3)      0.0105         0.024987   
    206. D(H   8,C   7,Fe  0,C   1)   -171.4425         0.003394   
    207. D(H  10,C   9,C   7,C   5)    178.6450         0.025022   
    208. D(Fe  0,C   9,C   7,C   5)     59.4313         0.025022   
    209. D(C   1,C   9,C   7,Fe  0)    -59.4319         0.025022   
    210. D(C   1,C   9,C   7,H   8)   -177.1729         0.025022   
    211. D(H  10,C   9,C   7,Fe  0)    119.2136         0.025022   
    212. D(C   1,C   9,C   7,C   5)     -0.0005         0.025022   
    213. D(H  10,C   9,C   1,C   3)   -177.1854         0.025004   
    214. D(H  10,C   9,C   1,H   2)      1.5040         0.025004   
    215. D(C   7,C   9,C   1,C   3)     -0.0097         0.025004   
    216. D(C   7,C   9,C   1,H   2)    178.6797         0.025004   
    217. D(C   7,C   9,C   1,Fe  0)     59.4422         0.025004   
    218. D(C   1,C   9,Fe  0,C  17)    -60.0492         0.003395   
    219. D(C   7,C   9,Fe  0,C  13)     99.4705         0.003395   
    220. D(C   7,C   9,Fe  0,C  11)     61.5615         0.003395   
    221. D(C   7,C   9,Fe  0,C   3)    -81.5050         0.003395   
    222. D(C   7,C   9,Fe  0,C   1)   -119.1937         0.003395   
    223. D(C   7,C   9,Fe  0,C   5)    -37.6775         0.003395   
    224. D(H  10,C   9,C   1,Fe  0)   -117.7335         0.025004   
    225. D(C   7,C   9,Fe  0,C  15)    143.2944         0.003395   
    226. D(C   1,C   9,Fe  0,C  15)    -97.5120         0.003395   
    227. D(Fe  0,C   9,C   1,H   2)    119.2375         0.025004   
    228. D(C   1,C   9,Fe  0,C  13)   -141.3358         0.003395   
    229. D(C   1,C   9,Fe  0,C  11)   -179.2448         0.003395   
    230. D(H  10,C   9,C   7,H   8)      1.4726         0.025022   
    231. D(Fe  0,C   9,C   7,H   8)   -117.7410         0.025022   
    232. D(C   1,C   9,Fe  0,C   7)    119.1937         0.003395   
    233. D(C   1,C   9,Fe  0,C   5)     81.5161         0.003395   
    234. D(C   1,C   9,Fe  0,C   3)     37.6886         0.003395   
    235. D(Fe  0,C   9,C   1,C   3)    -59.4519         0.025004   
    236. D(C  19,C  11,C   1,C   3)    -59.2980         0.001500   
    237. D(C  13,C  11,C   1,C   9)     62.3627         0.001500   
    238. D(H  12,C  11,Fe  0,C  15)   -127.6283         0.003400   
    239. D(H  12,C  11,C   1,C   3)     91.7422         0.001500   
    240. D(H  12,C  11,C   1,H   2)   -117.2418         0.001500   
    241. D(C  13,C  11,Fe  0,C   7)     99.4787         0.003400   
    242. D(C  13,C  11,Fe  0,C   5)    143.2929         0.003400   
    243. D(C  13,C  11,Fe  0,C   3)   -179.2485         0.003400   
    244. D(C  13,C  11,Fe  0,C  15)    -37.6842         0.003400   
    245. D(H  12,C  11,Fe  0,C  19)    150.8797         0.003400   
    246. D(H  12,C  11,Fe  0,C  17)   -171.4512         0.003400   
    247. D(C  13,C  11,Fe  0,C   9)     61.6023         0.003400   
    248. D(C  13,C  11,C   1,C   3)   -178.4646         0.001500   
    249. D(H  12,C  11,Fe  0,C  13)    -89.9442         0.003400   
    250. D(H  12,C  11,Fe  0,C   9)    -28.3419         0.003400   
    251. D(H  12,C  11,Fe  0,C   7)      9.5345         0.003400   
    252. D(C  19,C  11,C   1,H   2)     91.7179         0.001500   
    253. D(C  13,C  11,C   1,H   2)    -27.4486         0.001500   
    254. D(H  12,C  11,Fe  0,C   5)     53.3487         0.003400   
    255. D(H  12,C  11,C   1,C   9)    -27.4305         0.001500   
    256. D(H  12,C  11,Fe  0,C   3)     90.8073         0.003400   
    257. D(C  11,C  13,Fe  0,C   1)   -179.2166         0.003398   
    258. D(C  15,C  13,C  11,H  12)    178.6496         0.024967   
    259. D(C  15,C  13,C  11,Fe  0)     59.4412         0.024967   
    260. D(H  14,C  13,C  11,C  19)   -177.2652         0.024967   
    261. D(H  14,C  13,C  11,Fe  0)   -117.8060         0.024967   
    262. D(Fe  0,C  13,C  11,C  19)    -59.4591         0.024967   
    263. D(Fe  0,C  13,C  11,H  12)    119.2084         0.024967   
    264. D(C  15,C  13,C   3,H   4)    -27.4487         0.001500   
    265. D(C  15,C  13,C   3,C   1)     62.3661         0.001500   
    266. D(H  14,C  13,C   3,C   5)     91.7469         0.001500   
    267. D(H  14,C  13,C   3,H   4)   -117.2372         0.001500   
    268. D(H  14,C  13,C   3,C   1)    -27.4225         0.001500   
    269. D(C  11,C  13,C   3,C   5)    -59.2951         0.001500   
    270. D(C  11,C  13,C   3,H   4)     91.7208         0.001500   
    271. D(C  11,C  13,C   3,C   1)   -178.4645         0.001500   
    272. D(H  14,C  13,Fe  0,C  15)    -89.9403         0.003398   
    273. D(H  14,C  13,Fe  0,C  11)    150.8828         0.003398   
    274. D(H  14,C  13,Fe  0,C   9)      9.5581         0.003398   
    275. D(H  14,C  13,Fe  0,C   7)     53.3650         0.003398   
    276. D(H  14,C  13,Fe  0,C   5)     90.8270         0.003398   
    277. D(H  14,C  13,Fe  0,C   1)    -28.3338         0.003398   
    278. D(C  11,C  13,Fe  0,C  19)     37.6812         0.003398   
    279. D(C  11,C  13,Fe  0,C  17)     81.4948         0.003398   
    280. D(H  14,C  13,C  11,H  12)      1.4023         0.024967   
    281. D(C  11,C  13,Fe  0,C  15)    119.1769         0.003398   
    282. D(C  11,C  13,Fe  0,C   9)   -141.3247         0.003398   
    283. D(C  11,C  13,Fe  0,C   7)    -97.5178         0.003398   
    284. D(C  15,C  13,C  11,C  19)     -0.0179         0.024967   
    285. D(C  11,C  13,Fe  0,C   5)    -60.0558         0.003398   
    286. D(C  17,C  15,C  13,H  14)    178.6974         0.024975   
    287. D(C  17,C  15,C  13,Fe  0)     59.4574         0.024975   
    288. D(H  16,C  15,C  13,H  14)      1.4686         0.024975   
    289. D(H  16,C  15,C  13,C  11)   -177.2104         0.024975   
    290. D(H  16,C  15,C  13,Fe  0)   -117.7714         0.024975   
    291. D(Fe  0,C  15,C  13,H  14)    119.2400         0.024975   
    292. D(Fe  0,C  15,C  13,C  11)    -59.4390         0.024975   
    293. D(C  17,C  15,C   5,H   6)    -27.4392         0.001500   
    294. D(H  16,C  15,C   5,C   7)     91.6822         0.001500   
    295. D(H  16,C  15,C   5,H   6)   -117.2879         0.001500   
    296. D(H  16,C  15,C   5,C   3)    -27.4869         0.001500   
    297. D(C  13,C  15,C   5,C   7)    -59.2954         0.001500   
    298. D(C  13,C  15,C   5,H   6)     91.7344         0.001500   
    299. D(C  13,C  15,C   5,C   3)   -178.4646         0.001500   
    300. D(H  16,C  15,Fe  0,C  13)    150.8181         0.003399   
    301. D(H  16,C  15,Fe  0,C  11)   -171.4960         0.003399   
    302. D(H  16,C  15,Fe  0,C   9)     53.3119         0.003399   
    303. D(H  16,C  15,Fe  0,C   7)     90.7721         0.003399   
    304. D(C  17,C  15,C   5,C   3)     62.3618         0.001500   
    305. D(H  16,C  15,Fe  0,C   3)    -28.4137         0.003399   
    306. D(H  16,C  15,Fe  0,C   1)      9.4949         0.003399   
    307. D(C  13,C  15,Fe  0,C  19)     81.5067         0.003399   
    308. D(C  13,C  15,Fe  0,C  17)    119.1776         0.003399   
    309. D(C  13,C  15,Fe  0,C  11)     37.6859         0.003399   
    310. D(C  13,C  15,Fe  0,C   9)    -97.5062         0.003399   
    311. D(C  13,C  15,Fe  0,C   7)    -60.0460         0.003399   
    312. D(C  17,C  15,C  13,C  11)      0.0184         0.024975   
    313. D(C  13,C  15,Fe  0,C   3)   -179.2319         0.003399   
    314. D(C  13,C  15,Fe  0,C   1)   -141.3232         0.003399   
    315. D(C  19,C  17,C  15,H  16)    178.6557         0.024982   
    316. D(C  19,C  17,C  15,C  13)     -0.0119         0.024982   
    317. D(C  19,C  17,C  15,Fe  0)     59.4391         0.024982   
    318. D(H  18,C  17,C  15,H  16)      1.4373         0.024982   
    319. D(H  18,C  17,C  15,C  13)   -177.2303         0.024982   
    320. D(H  18,C  17,C  15,Fe  0)   -117.7793         0.024982   
    321. D(Fe  0,C  17,C  15,C  13)    -59.4510         0.024982   
    322. D(C  19,C  17,C   7,H   8)    -27.4290         0.001500   
    323. D(C  19,C  17,C   7,C   5)     62.3456         0.001500   
    324. D(H  18,C  17,C   7,H   8)   -117.2348         0.001500   
    325. D(H  18,C  17,C   7,C   5)    -27.4602         0.001500   
    326. D(C  15,C  17,C   7,C   9)    -59.2877         0.001500   
    327. D(C  15,C  17,C   7,H   8)     91.7566         0.001500   
    328. D(C  15,C  17,C   7,C   5)   -178.4688         0.001500   
    329. D(H  18,C  17,Fe  0,C  13)   -171.4674         0.003395   
    330. D(H  18,C  17,Fe  0,C  11)   -127.6382         0.003395   
    331. D(H  18,C  17,Fe  0,C   9)     90.8022         0.003395   
    332. D(H  18,C  17,C   7,C   9)     91.7209         0.001500   
    333. D(H  18,C  17,Fe  0,C   5)    -28.3973         0.003395   
    334. D(H  18,C  17,Fe  0,C   3)      9.5117         0.003395   
    335. D(H  18,C  17,Fe  0,C   1)     53.3396         0.003395   
    336. D(Fe  0,C  17,C  15,H  16)    119.2166         0.024982   
    337. D(C  15,C  17,Fe  0,C  19)    119.1892         0.003395   
    338. D(C  15,C  17,Fe  0,C  13)     37.6851         0.003395   
    339. D(C  15,C  17,Fe  0,C  11)     81.5143         0.003395   
    340. D(C  15,C  17,Fe  0,C   9)    -60.0454         0.003395   
    341. D(C  15,C  17,Fe  0,C   5)   -179.2449         0.003395   
    342. D(C  15,C  17,Fe  0,C   3)   -141.3358         0.003395   
    343. D(C  15,C  17,Fe  0,C   1)    -97.5079         0.003395   
    344. D(H  20,C  19,C  17,H  18)      1.4697         0.025022   
    345. D(H  20,C  19,C  17,C  15)   -177.1942         0.025022   
    346. D(H  20,C  19,C  17,Fe  0)   -117.7628         0.025022   
    347. D(C  11,C  19,C  17,C  15)      0.0008         0.025022   
    348. D(C  11,C  19,C  17,Fe  0)     59.4322         0.025022   
    349. D(Fe  0,C  19,C  17,H  18)    119.2325         0.025022   
    350. D(Fe  0,C  19,C  17,C  15)    -59.4314         0.025022   
    351. D(H  20,C  19,C  11,C  13)    178.6635         0.025004   
    352. D(H  20,C  19,C  11,H  12)      1.4401         0.025004   
    353. D(H  20,C  19,C  11,Fe  0)    119.2101         0.025004   
    354. D(C  17,C  19,C  11,H  12)   -177.2129         0.025004   
    355. D(C  17,C  19,C  11,Fe  0)    -59.4429         0.025004   
    356. D(Fe  0,C  19,C  11,C  13)     59.4534         0.025004   
    357. D(H  20,C  19,C   9,C   7)    -27.4555         0.001500   
    358. D(H  20,C  19,C   9,C   1)     91.7333         0.001500   
    359. D(C  17,C  19,C   9,H  10)     91.7651         0.001500   
    360. D(C  17,C  19,C   9,C   7)   -178.4733         0.001500   
    361. D(C  17,C  19,C   9,C   1)    -59.2845         0.001500   
    362. D(C  11,C  19,C   9,H  10)    -27.4209         0.001500   
    363. D(C  11,C  19,C   9,C   7)     62.3407         0.001500   
    364. D(Fe  0,C  19,C  11,H  12)   -117.7700         0.025004   
    365. D(C  11,C  19,C   9,C   1)   -178.4706         0.001500   
    366. D(C  17,C  19,Fe  0,C  13)     81.5057         0.003396   
    367. D(C  17,C  19,Fe  0,C  11)    119.1933         0.003396   
    368. D(C  17,C  19,C  11,C  13)      0.0106         0.025004   
    369. D(C  17,C  19,Fe  0,C   7)   -179.2385         0.003396   
    370. D(C  17,C  19,Fe  0,C   5)   -141.3453         0.003396   
    371. D(C  17,C  19,Fe  0,C   3)    -97.5231         0.003396   
    372. D(C  17,C  19,Fe  0,C   1)    -60.0562         0.003396   
    373. D(C  11,C  19,Fe  0,C  17)   -119.1933         0.003396   
    374. D(C  11,C  19,Fe  0,C  15)    -81.5149         0.003396   
    375. D(C  11,C  19,Fe  0,C  13)    -37.6876         0.003396   
    376. D(C  11,C  19,C  17,H  18)    178.6647         0.025022   
    377. D(C  11,C  19,Fe  0,C   7)     61.5681         0.003396   
    378. D(C  11,C  19,Fe  0,C   5)     99.4614         0.003396   
    379. D(C  11,C  19,Fe  0,C   3)    143.2835         0.003396   
    380. D(C  11,C  19,Fe  0,C   1)   -179.2496         0.003396   
    -----------------------------------------------------------------

Number of atoms                         .... 21
Number of degrees of freedom            .... 380


         *************************************************************
         *                GEOMETRY OPTIMIZATION CYCLE   1            *
         *************************************************************
---------------------------------
CARTESIAN COORDINATES (ANGSTROEM)
---------------------------------
  Fe    -0.000062   -0.000070   -0.000101
  C      0.280655   -2.021310    0.187237
  H      0.536357   -2.702221   -0.776584
  C     -0.612341   -1.553714    1.187711
  H     -1.598102   -2.193467    0.910616
  C      0.069979   -0.579863    1.964160
  H     -0.807489   -0.266665    2.732473
  C      1.384501   -0.445979    1.443819
  H      1.815665    0.414717    2.173284
  C      1.514613   -1.336751    0.345760
  H      2.646677   -1.089864    0.004604
  C     -0.248123    2.024127   -0.200338
  H      0.495633    2.795946    0.356130
  C      0.615090    1.531493   -1.214792
  H      1.685324    1.486951   -1.772591
  C     -0.100776    0.563311   -1.967776
  H     -0.169823   -0.263467   -2.844796
  C     -1.406313    0.458006   -1.418946
  H     -2.507551   -0.035786   -1.380262
  C     -1.497268    1.360756   -0.326743
  H     -2.095948    1.854984    0.598335

----------------------------
CARTESIAN COORDINATES (A.U.)
----------------------------
  NO LB      ZA    FRAG     MASS         X           Y           Z
   0 Fe   26.0000    0    55.850   -0.000117   -0.000132   -0.000191
   1 C     6.0000    0    12.011    0.530362   -3.819722    0.353827
   2 H     1.0000    0     1.008    1.013568   -5.106458   -1.467531
   3 C     6.0000    0    12.011   -1.157158   -2.936094    2.244449
   4 H     1.0000    0     1.008   -3.019976   -4.145053    1.720816
   5 C     6.0000    0    12.011    0.132241   -1.095783    3.711724
   6 H     1.0000    0     1.008   -1.525933   -0.503923    5.163626
   7 C     6.0000    0    12.011    2.616327   -0.842778    2.728422
   8 H     1.0000    0     1.008    3.431109    0.783702    4.106911
   9 C     6.0000    0    12.011    2.862204   -2.526094    0.653392
  10 H     1.0000    0     1.008    5.001495   -2.059544    0.008700
  11 C     6.0000    0    12.011   -0.468884    3.825045   -0.378583
  12 H     1.0000    0     1.008    0.936610    5.283573    0.672989
  13 C     6.0000    0    12.011    1.162352    2.894103   -2.295624
  14 H     1.0000    0     1.008    3.184802    2.809931   -3.349711
  15 C     6.0000    0    12.011   -0.190438    1.064503   -3.718558
  16 H     1.0000    0     1.008   -0.320919   -0.497881   -5.375886
  17 C     6.0000    0    12.011   -2.657546    0.865506   -2.681419
  18 H     1.0000    0     1.008   -4.738585   -0.067626   -2.608317
  19 C     6.0000    0    12.011   -2.829427    2.571457   -0.617454
  20 H     1.0000    0     1.008   -3.960768    3.505413    1.130689

--------------------------------
INTERNAL COORDINATES (ANGSTROEM)
--------------------------------
 Fe     0   0   0     0.000000000000     0.00000000     0.00000000
 C      1   0   0     2.049221718476     0.00000000     0.00000000
 H      2   1   0     1.207466111118   120.81409524     0.00000000
 C      2   1   3     1.420224655895    69.72790718   209.14480393
 H      4   2   1     1.207390035718   100.20849258   119.25817090
 C      4   2   1     1.420147485732   107.98836094   300.55574130
 H      6   4   2     1.207621251697   100.17114111   178.64238864
 C      6   4   2     1.420086821516   108.00255514     0.00000000
 H      8   6   4     1.207816141897   100.15592366   178.65394675
 C      8   6   4     1.419907493302   108.00122206     0.00000000
 H     10   8   6     1.207853284058   100.14152351   178.64497459
 C      1   2   3     2.049146118113   179.01479478   300.48329987
 H     12   1   2     1.207698145695   120.77884385   301.77546752
 C     12   1   2     1.420190649118    69.73064006    31.71966005
 H     14  12   1     1.207694122862   151.80506676   242.19397598
 C     14  12   1     1.420150213185   107.98897865    59.44122379
 H     16  14  12     1.207266913468   151.74966330   182.78962173
 C     16  14  12     1.420116256058   108.00192197     0.00000000
 H     18  16  14     1.207498674492   151.77794791   182.76972774
 C     18  16  14     1.419908170525   108.00010563     0.00000000
 H     20  18  16     1.207661964415   151.78295500   182.80579054

---------------------------
INTERNAL COORDINATES (A.U.)
---------------------------
 Fe     0   0   0     0.000000000000     0.00000000     0.00000000
 C      1   0   0     3.872467835602     0.00000000     0.00000000
 H      2   1   0     2.281780266005   120.81409524     0.00000000
 C      2   1   3     2.683835648285    69.72790718   209.14480393
 H      4   2   1     2.281636504333   100.20849258   119.25817090
 C      4   2   1     2.683689817809   107.98836094   300.55574130
 H      6   4   2     2.282073439211   100.17114111   178.64238864
 C      6   4   2     2.683575179057   108.00255514     0.00000000
 H      8   6   4     2.282441728315   100.15592366   178.65394675
 C      8   6   4     2.683236297843   108.00122206     0.00000000
 H     10   8   6     2.282511916827   100.14152351   178.64497459
 C      1   2   3     3.872324971622   179.01479478   300.48329987
 H     12   1   2     2.282218747808   120.77884385   301.77546752
 C     12   1   2     2.683771384788    69.73064006    31.71966005
 H     14  12   1     2.282211145756   151.80506676   242.19397598
 C     14  12   1     2.683694971949   107.98897865    59.44122379
 H     16  14  12     2.281403836999   151.74966330   182.78962173
 C     16  14  12     2.683630802280   108.00192197     0.00000000
 H     18  16  14     2.281841801863   151.77794791   182.76972774
 C     18  16  14     2.683237577610   108.00010563     0.00000000
 H     20  18  16     2.282150375098   151.78295500   182.80579054

---------------------
BASIS SET INFORMATION
---------------------
There are 3 groups of distinct atoms

 Group   1 Type Fe  : 17s11p7d1f contracted to 6s4p4d1f pattern {842111/6311/4111/1}
 Group   2 Type C   : 11s6p2d1f contracted to 5s3p2d1f pattern {62111/411/11/1}
 Group   3 Type H   : 5s1p contracted to 3s1p pattern {311/1}

Atom   0Fe   basis set group =>   1
Atom   1C    basis set group =>   2
Atom   2H    basis set group =>   3
Atom   3C    basis set group =>   2
Atom   4H    basis set group =>   3
Atom   5C    basis set group =>   2
Atom   6H    basis set group =>   3
Atom   7C    basis set group =>   2
Atom   8H    basis set group =>   3
Atom   9C    basis set group =>   2
Atom  10H    basis set group =>   3
Atom  11C    basis set group =>   2
Atom  12H    basis set group =>   3
Atom  13C    basis set group =>   2
Atom  14H    basis set group =>   3
Atom  15C    basis set group =>   2
Atom  16H    basis set group =>   3
Atom  17C    basis set group =>   2
Atom  18H    basis set group =>   3
Atom  19C    basis set group =>   2
Atom  20H    basis set group =>   3
---------------------------------
AUXILIARY/J BASIS SET INFORMATION
---------------------------------
There are 3 groups of distinct atoms

 Group   1 Type Fe  : 19s5p5d3f3g contracted to 8s5p5d2f3g pattern {121111111/11111/11111/21/111}
 Group   2 Type C   : 12s5p4d2f1g contracted to 6s4p3d1f1g pattern {711111/2111/211/2/1}
 Group   3 Type H   : 5s2p1d contracted to 3s1p1d pattern {311/2/1}

Atom   0Fe   basis set group =>   1
Atom   1C    basis set group =>   2
Atom   2H    basis set group =>   3
Atom   3C    basis set group =>   2
Atom   4H    basis set group =>   3
Atom   5C    basis set group =>   2
Atom   6H    basis set group =>   3
Atom   7C    basis set group =>   2
Atom   8H    basis set group =>   3
Atom   9C    basis set group =>   2
Atom  10H    basis set group =>   3
Atom  11C    basis set group =>   2
Atom  12H    basis set group =>   3
Atom  13C    basis set group =>   2
Atom  14H    basis set group =>   3
Atom  15C    basis set group =>   2
Atom  16H    basis set group =>   3
Atom  17C    basis set group =>   2
Atom  18H    basis set group =>   3
Atom  19C    basis set group =>   2
Atom  20H    basis set group =>   3


           ************************************************************
           *        Program running with 16 parallel MPI-processes    *
           *              working on a common directory               *
           ************************************************************
------------------------------------------------------------------------------
                             ORCA STARTUP CALCULATIONS
                           -- RI-GTO INTEGRALS CHOSEN --
------------------------------------------------------------------------------
------------------------------------------------------------------------------
                   ___                                                        
                  /   \      - P O W E R E D   B Y -                         
                 /     \                                                     
                 |  |  |   _    _      __       _____    __    __             
                 |  |  |  | |  | |    /  \     |  _  \  |  |  /  |          
                  \  \/   | |  | |   /    \    | | | |  |  | /  /          
                 / \  \   | |__| |  /  /\  \   | |_| |  |  |/  /          
                |  |  |   |  __  | /  /__\  \  |    /   |      \           
                |  |  |   | |  | | |   __   |  |    \   |  |\   \          
                \     /   | |  | | |  |  |  |  | |\  \  |  | \   \       
                 \___/    |_|  |_| |__|  |__|  |_| \__\ |__|  \__/        
                                                                              
                      - O R C A' S   B I G   F R I E N D -                    
                                      &                                       
                       - I N T E G R A L  F E E D E R -                       
                                                                              
 v1 FN, 2020, v2 2021, v3 2022-2024                                           
------------------------------------------------------------------------------


----------------------
SHARK INTEGRAL PACKAGE
----------------------

Number of atoms                             ...     21
Number of basis functions                   ...    415
Number of shells                            ...    165
Maximum angular momentum                    ...      3
Integral batch strategy                     ... SHARK/LIBINT Hybrid
RI-J (if used) integral strategy            ... SPLIT-RIJ (Revised 2003 algorithm where possible)
Printlevel                                  ...      1
Contraction scheme used                     ... SEGMENTED contraction
Prescreening option                         ... SCHWARTZ
   Thresh                                   ... 1.000e-12
   Tcut                                     ... 1.000e-14
   Tpresel                                  ... 1.000e-14 
Coulomb Range Separation                    ... NOT USED
Exchange Range Separation                   ... NOT USED
Multipole approximations                    ... NOT USED
Finite Nucleus Model                        ... NOT USED
CABS basis                                  ... NOT available
Auxiliary Coulomb fitting basis             ... AVAILABLE
   # of basis functions in Aux-J            ...    689
   # of shells in Aux-J                     ...    223
   Maximum angular momentum in Aux-J        ...      4
Auxiliary J/K fitting basis                 ... NOT available
Auxiliary Correlation fitting basis         ... NOT available
Auxiliary 'external' fitting basis          ... NOT available

Checking pre-screening integrals            ... done (  0.0 sec) Dimension = 165
Check shell pair data                       ... done (  0.0 sec)
Shell pair information
Shell pair cut-off parameter TPreSel        ...   1.0e-14
Total number of shell pairs                 ...     13695
Shell pairs after pre-screening             ...     12991
Total number of primitive shell pairs       ...     44265
Primitive shell pairs kept                  ...     31106
          la=0 lb=0:   3381 shell pairs
          la=1 lb=0:   3610 shell pairs
          la=1 lb=1:    980 shell pairs
          la=2 lb=0:   1954 shell pairs
          la=2 lb=1:   1046 shell pairs
          la=2 lb=2:    300 shell pairs
          la=3 lb=0:    906 shell pairs
          la=3 lb=1:    484 shell pairs
          la=3 lb=2:    264 shell pairs
          la=3 lb=3:     66 shell pairs

Calculating one electron integrals          ... done (  0.0 sec)
done (  0.1 sec)
Calculating Nuclear repulsion               ... done (  0.0 sec) ENN=    914.609893267319 Eh

Diagonalization of the overlap matrix:
Smallest eigenvalue                        ... 2.196e-05
Time for diagonalization                   ...    0.018 sec
Threshold for overlap eigenvalues          ... 1.000e-07
Number of eigenvalues below threshold      ... 0
Time for construction of square roots      ...    0.015 sec
Total time needed                          ...    0.048 sec

-------------------
DFT GRID GENERATION
-------------------

General Integration Accuracy     IntAcc      ... 4.959
Radial Grid Type                 RadialGrid  ... OptM3 with GC (2021)
Angular Grid (max. ang.)         AngularGrid ... 6 (Lebedev-590)
Angular grid pruning method      GridPruning ... 4 (adaptive)
Weight generation scheme         WeightScheme... mBecke (2022)
Basis function cutoff            BFCut       ... 1.0000e-12
Integration weight cutoff        WCut        ... 1.0000e-14
Partially contracted basis set               ... off
Rotationally invariant grid construction     ... off
Angular grids for H and He will be reduced by one unit
Core-polarized basis detected: some atoms will have their core
                               angular grid increased.

Total number of grid points                  ...   254672
Total number of batches                      ...     3989
Average number of points per batch           ...       63
Average number of grid points per atom       ...    12127

--------------------
COSX GRID GENERATION
--------------------

GRIDX 1
-------
General Integration Accuracy     IntAcc      ... 4.020
Radial Grid Type                 RadialGrid  ... OptM3 with GC (2021)
Angular Grid (max. ang.)         AngularGrid ... 2 (Lebedev-110)
Angular grid pruning method      GridPruning ... 4 (adaptive)
Weight generation scheme         WeightScheme... mBecke (2022)
Basis function cutoff            BFCut       ... 1.0000e-12
Integration weight cutoff        WCut        ... 1.0000e-14
Partially contracted basis set               ... on
Rotationally invariant grid construction     ... off
Angular grids for H and He will be reduced by one unit
Core-polarized basis detected: some atoms will have their core
                               angular grid increased.

Total number of grid points                  ...    30486
Total number of batches                      ...      247
Average number of points per batch           ...      123
Average number of grid points per atom       ...     1452
UseSFitting                                  ... on

GRIDX 2
-------
General Integration Accuracy     IntAcc      ... 4.338
Radial Grid Type                 RadialGrid  ... OptM3 with GC (2021)
Angular Grid (max. ang.)         AngularGrid ... 3 (Lebedev-194)
Angular grid pruning method      GridPruning ... 4 (adaptive)
Weight generation scheme         WeightScheme... mBecke (2022)
Basis function cutoff            BFCut       ... 1.0000e-12
Integration weight cutoff        WCut        ... 1.0000e-14
Partially contracted basis set               ... on
Rotationally invariant grid construction     ... off
Angular grids for H and He will be reduced by one unit
Core-polarized basis detected: some atoms will have their core
                               angular grid increased.

Total number of grid points                  ...    60376
Total number of batches                      ...      479
Average number of points per batch           ...      126
Average number of grid points per atom       ...     2875
UseSFitting                                  ... on

GRIDX 3
-------
General Integration Accuracy     IntAcc      ... 4.871
Radial Grid Type                 RadialGrid  ... OptM3 with GC (2021)
Angular Grid (max. ang.)         AngularGrid ... 4 (Lebedev-302)
Angular grid pruning method      GridPruning ... 4 (adaptive)
Weight generation scheme         WeightScheme... mBecke (2022)
Basis function cutoff            BFCut       ... 1.0000e-12
Integration weight cutoff        WCut        ... 1.0000e-14
Partially contracted basis set               ... on
Rotationally invariant grid construction     ... off
Angular grids for H and He will be reduced by one unit
Core-polarized basis detected: some atoms will have their core
                               angular grid increased.

Total number of grid points                  ...   115001
Total number of batches                      ...      912
Average number of points per batch           ...      126
Average number of grid points per atom       ...     5476
UseSFitting                                  ... on
Initializing property integral containers    ... done (  0.0 sec)

SHARK setup successfully completed in   3.6 seconds

Maximum memory used throughout the entire STARTUP-calculation: 73.0 MB


           ************************************************************
           *        Program running with 16 parallel MPI-processes    *
           *              working on a common directory               *
           ************************************************************
-------------------------------------------------------------------------------
                                 ORCA GUESS
                   Start orbitals & Density for SCF / CASSCF
-------------------------------------------------------------------------------

------------
SCF SETTINGS
------------
Hamiltonian:
 Density Functional     Method          .... DFT(GTOs)
 Exchange Functional    Exchange        .... PBE
   PBE kappa parameter   XKappa         ....  0.804000
   PBE mue parameter    XMuePBE         ....  0.219520
 Correlation Functional Correlation     .... PBE
   PBE beta parameter  CBetaPBE         ....  0.066725
 LDA part of GGA corr.  LDAOpt          .... PW91-LDA
 Gradients option       PostSCFGGA      .... off
 Hybrid DFT is turned on
   Fraction HF Exchange ScalHFX         ....  0.250000
   Scaling of DF-GGA-X  ScalDFX         ....  0.750000
   Scaling of DF-GGA-C  ScalDFC         ....  1.000000
   Scaling of DF-LDA-C  ScalLDAC        ....  1.000000
   Perturbative correction              ....  0.000000
   NL short-range parameter             ....  6.900000
 RI-approximation to the Coulomb term is turned on
   Number of AuxJ basis functions       .... 689
   RIJ-COSX (HFX calculated with COS-X)).... on


General Settings:
 Integral files         IntName         .... FEROCE87-S1
 Hartree-Fock type      HFTyp           .... RHF
 Total Charge           Charge          ....    0
 Multiplicity           Mult            ....    1
 Number of Electrons    NEL             ....   96
 Basis Dimension        Dim             ....  415
 Nuclear Repulsion      ENuc            ....    914.6098932673 Eh

Convergence Acceleration:
 AO-DIIS                CNVDIIS         .... on
   Start iteration      DIISMaxIt       ....     0
   Startup error        DIISStart       ....  0.200000
   # of expansion vecs  DIISMaxEq       ....     5
   Bias factor          DIISBfac        ....   1.050
   Max. coefficient     DIISMaxC        ....  10.000
 MO-DIIS                CNVKDIIS        .... off
 Trust-Rad. Augm. Hess. CNVTRAH         .... auto
   Auto Start mean grad. ratio tolernc. ....  1.125000
   Auto Start start iteration           ....    50
   Auto Start num. interpolation iter.  ....    10
   Max. Number of Micro iterations      ....    24
   Max. Number of Macro iterations      .... Maxiter - #DIIS iter
   Number of Davidson start vectors     ....     2
   Converg. threshold    (grad. norm)   ....   2.000e-06
   Grad. Scal. Fac. for Micro threshold ....   0.100
   Minimum threshold for Micro iter.    ....   1.000e-02
   NR start threshold (gradient norm)   ....   1.000e-04
   Initial trust radius                 ....   0.400
   Minimum AH scaling param. (alpha)    ....   1.000
   Maximum AH scaling param. (alpha)    .... 1000.000
   Quad. conv. algorithm                .... NR
   White noise on init. David. guess    .... on
   Maximum white noise                  ....   0.010
   Pseudo random numbers                .... off
   Inactive MOs                         .... canonical
   Orbital update algorithm             .... Taylor
   Preconditioner                       .... Diag
   Full preconditioner red. dimension   ....   250
 SOSCF                  CNVSOSCF        .... on
   Start iteration      SOSCFMaxIt      ....   150
   Startup grad/error   SOSCFStart      ....  0.001000
   Hessian update       SOSCFHessUp     .... L-BFGS
 Level Shifting         CNVShift        .... on
   Level shift para.    LevelShift      ....    0.2500
   Turn off err/grad.   ShiftErr        ....    0.0000
 Zerner damping         CNVZerner       .... off
 Static damping         CNVDamp         .... on
   Fraction old density DampFac         ....    0.8500
   Max. Damping (<1)    DampMax         ....    0.9800
   Min. Damping (>=0)   DampMin         ....    0.0000
   Turn off err/grad.   DampErr         ....    0.0300

SCF Procedure:
 Maximum # iterations   MaxIter         ....   125
 SCF integral mode      SCFMode         .... Direct
   Integral package                     .... SHARK and LIBINT hybrid scheme
 Reset frequency        DirectResetFreq ....    20
 Integral Threshold     Thresh          ....  1.000e-12 Eh
 Primitive CutOff       TCut            ....  1.000e-14 Eh

Convergence Tolerance:
 Convergence Check Mode ConvCheckMode   .... Total+1el-Energy
 Convergence forced     ConvForced      .... 0
 Energy Change          TolE            ....  1.000e-09 Eh
 1-El. energy change                    ....  1.000e-06 Eh
 Orbital Gradient       TolG            ....  2.000e-06
 Orbital Rotation angle TolX            ....  2.000e-06
 DIIS Error             TolErr          ....  1.000e-08

------------------------------
INITIAL GUESS: MODEL POTENTIAL
------------------------------
Loading Hartree-Fock densities                     ... done
Calculating cut-offs                               ... done
Initializing the effective Hamiltonian             ... done
Setting up the integral package (SHARK)            ... done
done (   0.1 sec)
Making the grid                                    ... done (   0.1 sec)
Mapping shells                                     ... done
Starting the XC term evaluation                    ... done (   0.1 sec)
  promolecular density results
     # of electrons  =     95.996107699
     EX              =   -108.375896491
     EC              =     -3.526272155
     EX+EC           =   -111.902168646
Transforming the Hamiltonian                       ... done (   0.0 sec)
done (   0.0 sec)
Back transforming the eigenvectors                 ... done (   0.0 sec)
done
                      ------------------
                      INITIAL GUESS DONE (   0.4 sec)
                      ------------------
             **** ENERGY FILE WAS UPDATED (FEROCE87-S1.en.tmp) ****
Finished Guess after   0.6 sec
Maximum memory used throughout the entire GUESS-calculation: 29.9 MB


           ************************************************************
           *        Program running with 16 parallel MPI-processes    *
           *              working on a common directory               *
           ************************************************************

-------------------------------------------------------------------------------------------
                                      ORCA LEAN-SCF
                              memory conserving SCF solver
-------------------------------------------------------------------------------------------

----------------------------------------D-I-I-S--------------------------------------------
Iteration    Energy (Eh)           Delta-E    RMSDP     MaxDP     DIISErr   Damp  Time(sec)
-------------------------------------------------------------------------------------------
               ***  Starting incremental Fock matrix formation  ***
    1    -1649.6002256933998069     0.00e+00  1.19e-03  3.12e-02  1.67e-01  0.850   4.3
    2    -1649.7142593185153601    -1.14e-01  1.52e-03  5.53e-02  1.24e-01  0.850   2.6
                               ***Turning on AO-DIIS***
    3    -1649.7810829992636172    -6.68e-02  5.84e-04  1.31e-02  8.29e-02  0.850   2.5
    4    -1649.8224048570355080    -4.13e-02  2.87e-04  9.20e-03  6.20e-02  0.850   2.4
    5    -1649.8522061447451961    -2.98e-02  2.23e-04  9.30e-03  5.02e-02  0.850   2.4
    6    -1649.8760066632125927    -2.38e-02  2.02e-04  9.05e-03  4.19e-02  0.850   2.4
    7    -1649.8953763679778604    -1.94e-02  1.84e-04  8.68e-03  3.53e-02  0.850   2.4
    8    -1649.9112693271108583    -1.59e-02  1.80e-04  8.43e-03  2.99e-02  0.850   2.4
    9    -1649.9243755551769937    -1.31e-02  1.03e-03  4.84e-02  2.50e-02  0.000   2.4
   10    -1649.9941427792523427    -6.98e-02  1.49e-04  8.73e-03  1.40e-02  0.000   2.5
   11    -1649.9931630780429259     9.80e-04  7.84e-05  4.38e-03  3.34e-02  0.000   2.4
   12    -1649.9943087128399384    -1.15e-03  7.84e-06  2.02e-04  1.26e-02  0.850   2.3
   13    -1649.9943513395414811    -4.26e-05  6.92e-05  1.71e-03  1.15e-02  0.000   2.1
   14    -1649.9945576120449005    -2.06e-04  1.36e-05  4.70e-04  1.99e-03  0.000   2.3
                              *** Initializing SOSCF ***
---------------------------------------S-O-S-C-F--------------------------------------
Iteration    Energy (Eh)           Delta-E    RMSDP     MaxDP     MaxGrad    Time(sec)
--------------------------------------------------------------------------------------
   15    -1649.9945634877562952    -5.88e-06  9.18e-06  2.86e-04  3.44e-04     2.2
               *** Restarting incremental Fock matrix formation ***
   16    -1649.9945665999102857    -3.11e-06  1.49e-05  4.93e-04  1.54e-04     4.0
   17    -1649.9945647129184181     1.89e-06  4.76e-06  2.78e-04  5.83e-04     3.1
   18    -1649.9945669839094080    -2.27e-06  3.53e-06  1.03e-04  2.24e-05     3.0
   19    -1649.9945669846106284    -7.01e-10  1.29e-06  2.61e-05  1.87e-05     2.9
                 **** Energy Check signals convergence ****

               *****************************************************
               *                     SUCCESS                       *
               *           SCF CONVERGED AFTER  19 CYCLES          *
               *****************************************************

 done (    5.397 sec)
Old exchange energy                            :    -27.286147674 Eh
New exchange energy                            :    -27.286149651 Eh
Exchange energy change after final integration :     -0.000001977 Eh
Total energy after final integration           :  -1649.994568962 Eh
             **** ENERGY FILE WAS UPDATED (FEROCE87-S1.en.tmp) ****

----------------
TOTAL SCF ENERGY
----------------

Total Energy       :      -1649.99456896196602 Eh          -44898.63482 eV

Components:
Nuclear Repulsion  :        914.60989326731908 Eh           24887.80047 eV
Electronic Energy  :      -2564.60446025192959 Eh          -69786.43524 eV
One Electron Energy:      -4087.82663063126984 Eh         -111235.41772 eV
Two Electron Energy:       1523.22217037934047 Eh           41448.98248 eV

Virial components:
Potential Energy   :      -3295.16692431453885 Eh          -89666.05054 eV
Kinetic Energy     :       1645.17235535257259 Eh           44767.41572 eV
Virial Ratio       :          2.00293112973465

DFT components:
N(Alpha)           :       47.999993037953 electrons
N(Beta)            :       47.999993037953 electrons
N(Total)           :       95.999986075906 electrons
E(X)               :      -81.859168455508 Eh       
E(C)               :       -3.554282344561 Eh       
E(XC)              :      -85.413450800069 Eh       

---------------
SCF CONVERGENCE
---------------

  Last Energy change         ...    7.0122e-10  Tolerance :   1.0000e-09
  Last MAX-Density change    ...    2.6118e-05  Tolerance :   1.0000e-08
  Last RMS-Density change    ...    1.2893e-06  Tolerance :   1.0000e-09
  Last DIIS Error            ...    3.4435e-04  Tolerance :   1.0000e-08
  Last Orbital Gradient      ...    1.8738e-05  Tolerance :   2.0000e-06
  Last Orbital Rotation      ...    1.9287e-05  Tolerance :   2.0000e-06


----------------
ORBITAL ENERGIES
----------------

  NO   OCC          E(Eh)            E(eV) 
   0   2.0000    -256.337319     -6975.2931 
   1   2.0000     -30.106481      -819.2390 
   2   2.0000     -25.946115      -706.0297 
   3   2.0000     -25.926539      -705.4970 
   4   2.0000     -25.926535      -705.4969 
   5   2.0000     -10.246905      -278.8325 
   6   2.0000     -10.246893      -278.8321 
   7   2.0000     -10.246571      -278.8234 
   8   2.0000     -10.246566      -278.8232 
   9   2.0000     -10.246561      -278.8231 
  10   2.0000     -10.246553      -278.8229 
  11   2.0000     -10.246010      -278.8081 
  12   2.0000     -10.245999      -278.8078 
  13   2.0000     -10.245987      -278.8075 
  14   2.0000     -10.245979      -278.8073 
  15   2.0000      -3.454300       -93.9963 
  16   2.0000      -2.241983       -61.0075 
  17   2.0000      -2.196377       -59.7665 
  18   2.0000      -2.196370       -59.7663 
  19   2.0000      -0.928468       -25.2649 
  20   2.0000      -0.911169       -24.7942 
  21   2.0000      -0.736387       -20.0381 
  22   2.0000      -0.736358       -20.0373 
  23   2.0000      -0.734874       -19.9969 
  24   2.0000      -0.734845       -19.9961 
  25   2.0000      -0.563049       -15.3214 
  26   2.0000      -0.562991       -15.3198 
  27   2.0000      -0.554183       -15.0801 
  28   2.0000      -0.554118       -15.0783 
  29   2.0000      -0.529869       -14.4185 
  30   2.0000      -0.512989       -13.9591 
  31   2.0000      -0.437007       -11.8916 
  32   2.0000      -0.393354       -10.7037 
  33   2.0000      -0.393336       -10.7032 
  34   2.0000      -0.382909       -10.4195 
  35   2.0000      -0.382596       -10.4110 
  36   2.0000      -0.382586       -10.4107 
  37   2.0000      -0.358670        -9.7599 
  38   2.0000      -0.358602        -9.7581 
  39   2.0000      -0.354112        -9.6359 
  40   2.0000      -0.354043        -9.6340 
  41   2.0000      -0.284285        -7.7358 
  42   2.0000      -0.284256        -7.7350 
  43   2.0000      -0.268234        -7.2990 
  44   2.0000      -0.268217        -7.2985 
  45   2.0000      -0.247467        -6.7339 
  46   2.0000      -0.218546        -5.9469 
  47   2.0000      -0.218529        -5.9465 
  48   0.0000      -0.000750        -0.0204 
  49   0.0000      -0.000712        -0.0194 
  50   0.0000       0.017181         0.4675 
  51   0.0000       0.049479         1.3464 
  52   0.0000       0.049527         1.3477 
  53   0.0000       0.055294         1.5046 
  54   0.0000       0.057956         1.5771 
  55   0.0000       0.057984         1.5778 
  56   0.0000       0.061879         1.6838 
  57   0.0000       0.061900         1.6844 
  58   0.0000       0.075959         2.0669 
*Only the first 10 virtual orbitals were printed.

                    ********************************
                    * MULLIKEN POPULATION ANALYSIS *
                    ********************************

-----------------------
MULLIKEN ATOMIC CHARGES
-----------------------
   0 Fe:    0.364688
   1 C :   -0.164404
   2 H :    0.128357
   3 C :   -0.165338
   4 H :    0.128433
   5 C :   -0.165041
   6 H :    0.128414
   7 C :   -0.164626
   8 H :    0.128427
   9 C :   -0.165002
  10 H :    0.128423
  11 C :   -0.164746
  12 H :    0.128387
  13 C :   -0.165091
  14 H :    0.128386
  15 C :   -0.164646
  16 H :    0.128364
  17 C :   -0.164706
  18 H :    0.128370
  19 C :   -0.165068
  20 H :    0.128420
Sum of atomic charges:    0.0000000

--------------------------------
MULLIKEN REDUCED ORBITAL CHARGES
--------------------------------
  0 Fes       :     6.424137  s :     6.424137
      pz      :     4.149358  p :    12.423854
      px      :     4.104449
      py      :     4.170048
      dz2     :     1.004556  d :     6.785629
      dxz     :     1.419526
      dyz     :     1.718902
      dx2y2   :     1.299232
      dxy     :     1.343413
      f0      :     0.000207  f :     0.001691
      f+1     :     0.000185
      f-1     :     0.000375
      f+2     :     0.000250
      f-2     :     0.000234
      f+3     :     0.000207
      f-3     :     0.000233

  1 C s       :     3.215364  s :     3.215364
      pz      :     0.970700  p :     2.844323
      px      :     0.863661
      py      :     1.009962
      dz2     :     0.022428  d :     0.096219
      dxz     :     0.016526
      dyz     :     0.015469
      dx2y2   :     0.026094
      dxy     :     0.015701
      f0      :     0.001199  f :     0.008498
      f+1     :     0.001270
      f-1     :     0.001343
      f+2     :     0.001246
      f-2     :     0.001370
      f+3     :     0.001533
      f-3     :     0.000536

  2 H s       :     0.852547  s :     0.852547
      pz      :     0.008983  p :     0.019096
      px      :     0.003810
      py      :     0.006303

  3 C s       :     3.216283  s :     3.216283
      pz      :     0.907310  p :     2.844392
      px      :     0.966004
      py      :     0.971077
      dz2     :     0.029029  d :     0.096166
      dxz     :     0.015400
      dyz     :     0.018830
      dx2y2   :     0.017605
      dxy     :     0.015301
      f0      :     0.000894  f :     0.008497
      f+1     :     0.001058
      f-1     :     0.001293
      f+2     :     0.001264
      f-2     :     0.001449
      f+3     :     0.000966
      f-3     :     0.001573

  4 H s       :     0.852469  s :     0.852469
      pz      :     0.003974  p :     0.019098
      px      :     0.008825
      py      :     0.006299

  5 C s       :     3.215887  s :     3.215887
      pz      :     1.002155  p :     2.844444
      px      :     0.890976
      py      :     0.951312
      dz2     :     0.015936  d :     0.096212
      dxz     :     0.022026
      dyz     :     0.009452
      dx2y2   :     0.018461
      dxy     :     0.030338
      f0      :     0.000711  f :     0.008499
      f+1     :     0.001572
      f-1     :     0.000844
      f+2     :     0.001655
      f-2     :     0.001182
      f+3     :     0.000994
      f-3     :     0.001541

  6 H s       :     0.852494  s :     0.852494
      pz      :     0.006896  p :     0.019092
      px      :     0.007976
      py      :     0.004220

  7 C s       :     3.216022  s :     3.216022
      pz      :     0.954072  p :     2.843889
      px      :     0.913007
      py      :     0.976809
      dz2     :     0.018612  d :     0.096218
      dxz     :     0.027222
      dyz     :     0.011020
      dx2y2   :     0.016136
      dxy     :     0.023228
      f0      :     0.001283  f :     0.008498
      f+1     :     0.001153
      f-1     :     0.000990
      f+2     :     0.001538
      f-2     :     0.001518
      f+3     :     0.000809
      f-3     :     0.001206

  8 H s       :     0.852489  s :     0.852489
      pz      :     0.006922  p :     0.019084
      px      :     0.004180
      py      :     0.007982

  9 C s       :     3.216127  s :     3.216127
      pz      :     0.934025  p :     2.844118
      px      :     0.979835
      py      :     0.930257
      dz2     :     0.017733  d :     0.096257
      dxz     :     0.023015
      dyz     :     0.018376
      dx2y2   :     0.022329
      dxy     :     0.014804
      f0      :     0.001432  f :     0.008500
      f+1     :     0.001004
      f-1     :     0.000972
      f+2     :     0.001072
      f-2     :     0.001379
      f+3     :     0.001627
      f-3     :     0.001014

 10 H s       :     0.852494  s :     0.852494
      pz      :     0.004183  p :     0.019084
      px      :     0.010917
      py      :     0.003984

 11 C s       :     3.215918  s :     3.215918
      pz      :     0.951596  p :     2.844095
      px      :     0.874972
      py      :     1.017527
      dz2     :     0.013879  d :     0.096234
      dxz     :     0.031272
      dyz     :     0.012264
      dx2y2   :     0.021359
      dxy     :     0.017459
      f0      :     0.001509  f :     0.008500
      f+1     :     0.000952
      f-1     :     0.000851
      f+2     :     0.001113
      f-2     :     0.001550
      f+3     :     0.001705
      f-3     :     0.000821

 12 H s       :     0.852524  s :     0.852524
      pz      :     0.005260  p :     0.019089
      px      :     0.006690
      py      :     0.007139

 13 C s       :     3.216151  s :     3.216151
      pz      :     0.933023  p :     2.844266
      px      :     0.972666
      py      :     0.938577
      dz2     :     0.025545  d :     0.096177
      dxz     :     0.011715
      dyz     :     0.020904
      dx2y2   :     0.025312
      dxy     :     0.012701
      f0      :     0.001047  f :     0.008497
      f+1     :     0.001087
      f-1     :     0.001210
      f+2     :     0.001925
      f-2     :     0.001193
      f+3     :     0.001011
      f-3     :     0.001025

 14 H s       :     0.852524  s :     0.852524
[...]
     45       0.002526   0.002394  -0.002540
     46      -0.025008  -0.018624   0.019870
     47      -0.029639  -0.021986   0.023548
     48      -0.035429  -0.025839   0.027487
     49       0.278771   0.196781  -0.210383
     50       0.326371   0.228890  -0.245602
     51      -0.003646  -0.025148   0.026905
     52      -0.000123  -0.014116   0.015046
     53       0.001788  -0.002562   0.002777
     54       0.030752   0.262750  -0.281630
     55       0.014951   0.149563  -0.159758
     56       0.000295   0.025349  -0.027531
     57       0.023456  -0.017769   0.019020
     58      -0.011621   0.009445  -0.010145
     59      -0.026163   0.020932  -0.022342
     60      -0.251378   0.185431  -0.198851
     61       0.131543  -0.097307   0.104684
     62       0.296188  -0.220818   0.236184


-----------
IR SPECTRUM
-----------

 Mode   freq       eps      Int      T**2         TX        TY        TZ
       cm**-1   L/(mol*cm) km/mol    a.u.
----------------------------------------------------------------------------
  6:     41.20   0.000000    0.00  0.000000  (-0.000005 -0.000007 -0.000007)
  7:    167.50   0.000139    0.70  0.000260  ( 0.012067  0.009528  0.004809)
  8:    167.52   0.000139    0.70  0.000260  (-0.009350  0.005942  0.011706)
  9:    302.57   0.000000    0.00  0.000000  ( 0.000002 -0.000006  0.000004)
 10:    382.97   0.000000    0.00  0.000000  ( 0.000058  0.000030  0.000014)
 11:    383.00   0.000000    0.00  0.000000  ( 0.000049 -0.000024 -0.000049)
 12:    478.87   0.003378   17.07  0.002201  (-0.015135  0.033679 -0.028948)
 13:    508.05   0.005474   27.66  0.003362  ( 0.017084  0.040347  0.037978)
 14:    508.08   0.005473   27.66  0.003362  ( 0.052176  0.001658 -0.025235)
 15:    617.68   0.000000    0.00  0.000000  (-0.000023  0.000006  0.000016)
 16:    617.69   0.000000    0.00  0.000000  ( 0.000015  0.000006  0.000005)
 17:    621.20   0.000000    0.00  0.000000  ( 0.000001 -0.000014  0.000005)
 18:    621.21   0.000000    0.00  0.000000  ( 0.000006 -0.000005 -0.000007)
 19:    825.90   0.000000    0.00  0.000000  ( 0.000003 -0.000039  0.000035)
 20:    825.91   0.000000    0.00  0.000000  (-0.000049  0.000150 -0.000133)
 21:    835.13   0.016216   81.95  0.006059  (-0.024842  0.055839 -0.048210)
 22:    842.71   0.000000    0.00  0.000000  ( 0.000090 -0.000131  0.000141)
 23:    842.72   0.000000    0.00  0.000000  ( 0.000031 -0.000043  0.000054)
 24:    842.73   0.000000    0.00  0.000000  ( 0.000007 -0.000008  0.000023)
 25:    858.54   0.000000    0.00  0.000000  (-0.000023 -0.000013 -0.000005)
 26:    858.55   0.000000    0.00  0.000000  (-0.000044 -0.000040 -0.000007)
 27:    859.86   0.001261    6.38  0.000458  ( 0.007930  0.014897  0.013154)
 28:    859.87   0.001261    6.37  0.000458  (-0.018661  0.000709  0.010436)
 29:    911.77   0.000000    0.00  0.000000  (-0.000005 -0.000010  0.000008)
 30:    911.80   0.000000    0.00  0.000000  (-0.000002 -0.000017 -0.000028)
 31:    919.01   0.000000    0.00  0.000000  (-0.000009 -0.000010 -0.000008)
 32:    919.04   0.000000    0.00  0.000000  ( 0.000005  0.000005  0.000012)
 33:   1025.92   0.000000    0.00  0.000000  ( 0.000055  0.000017  0.000005)
 34:   1025.94   0.000000    0.00  0.000000  ( 0.000071 -0.000024 -0.000071)
 35:   1032.77   0.003876   19.59  0.001171  ( 0.030759  0.014930  0.001432)
 36:   1032.79   0.003875   19.58  0.001171  (-0.010266  0.018593  0.026830)
 37:   1069.80   0.000000    0.00  0.000000  ( 0.000005 -0.000004 -0.000002)
 38:   1069.81   0.000000    0.00  0.000000  ( 0.000014 -0.000001  0.000001)
 39:   1077.98   0.000000    0.00  0.000000  (-0.000004  0.000004  0.000003)
 40:   1077.99   0.000000    0.00  0.000000  ( 0.000008  0.000007  0.000006)
 41:   1153.28   0.002181   11.02  0.000590  ( 0.007758 -0.017426  0.015047)
 42:   1153.33   0.002666   13.47  0.000721  ( 0.008573 -0.019266  0.016632)
 43:   1278.52   0.000000    0.00  0.000000  ( 0.000003  0.000001  0.000002)
 44:   1279.05   0.000000    0.00  0.000000  ( 0.000001 -0.000005  0.000000)
 45:   1402.24   0.000000    0.00  0.000000  ( 0.000001  0.000001  0.000003)
 46:   1402.26   0.000000    0.00  0.000000  ( 0.000001 -0.000003 -0.000002)
 47:   1419.21   0.000000    0.00  0.000000  (-0.000005  0.000001 -0.000008)
 48:   1419.23   0.000000    0.00  0.000000  ( 0.000005  0.000003  0.000001)
 49:   1461.77   0.000002    0.01  0.000000  ( 0.000601  0.000113 -0.000185)
 50:   1461.77   0.000001    0.01  0.000000  (-0.000213  0.000276  0.000431)
 51:   1462.24   0.000292    1.47  0.000062  ( 0.005286  0.004991  0.003060)
 52:   1462.24   0.000290    1.46  0.000062  (-0.005260  0.002301  0.005370)
 53:   3242.40   0.000000    0.00  0.000000  ( 0.000013 -0.000017 -0.000016)
 54:   3242.42   0.000000    0.00  0.000000  ( 0.000010  0.000009 -0.000005)
 55:   3243.52   0.000000    0.00  0.000000  ( 0.000002  0.000010 -0.000001)
 56:   3243.54   0.000000    0.00  0.000000  (-0.000016 -0.000014  0.000007)
 57:   3257.40   0.000001    0.01  0.000000  ( 0.000286  0.000012 -0.000132)
 58:   3257.41   0.000000    0.00  0.000000  (-0.000138 -0.000118 -0.000064)
 59:   3258.17   0.002498   12.62  0.000239  (-0.013962 -0.006636 -0.000496)
 60:   3258.19   0.002496   12.61  0.000239  ( 0.004463 -0.008482 -0.012134)
 61:   3269.39   0.000402    2.03  0.000038  (-0.001971  0.004451 -0.003835)
 62:   3269.55   0.000001    0.00  0.000000  ( 0.000077 -0.000169  0.000117)

* The epsilon (eps) is given for a Dirac delta lineshape.
** The dipole moment derivative (T) already includes vibrational overlap.

The first frequency considered to be a vibration is 6
The total number of vibrations considered is 57


--------------------------
THERMOCHEMISTRY AT 298.15K
--------------------------

Temperature         ...   298.15 K
Pressure            ...     1.00 atm
Total Mass          ...   186.04 AMU
Quasi RRHO          ...     True
Cut-Off Frequency   ...     1.00 cm^-1

Throughout the following assumptions are being made:
  (1) The electronic state is orbitally nondegenerate
  (2) There are no thermally accessible electronically excited states
  (3) Hindered rotations indicated by low frequency modes are not
      treated as such but are treated as vibrations and this may
      cause some error
  (4) All equations used are the standard statistical mechanics
      equations for an ideal gas
  (5) All vibrations are strictly harmonic

freq.      41.20  E(vib)   ...       0.54 
freq.     167.50  E(vib)   ...       0.38 
freq.     167.52  E(vib)   ...       0.38 
freq.     302.57  E(vib)   ...       0.26 
freq.     382.97  E(vib)   ...       0.20 
freq.     383.00  E(vib)   ...       0.20 
freq.     478.87  E(vib)   ...       0.15 
freq.     508.05  E(vib)   ...       0.14 
freq.     508.08  E(vib)   ...       0.14 
freq.     617.68  E(vib)   ...       0.09 
freq.     617.69  E(vib)   ...       0.09 
freq.     621.20  E(vib)   ...       0.09 
freq.     621.21  E(vib)   ...       0.09 
freq.     825.90  E(vib)   ...       0.04 
freq.     825.91  E(vib)   ...       0.04 
freq.     835.13  E(vib)   ...       0.04 
freq.     842.71  E(vib)   ...       0.04 
freq.     842.72  E(vib)   ...       0.04 
freq.     842.73  E(vib)   ...       0.04 
freq.     858.54  E(vib)   ...       0.04 
freq.     858.55  E(vib)   ...       0.04 
freq.     859.86  E(vib)   ...       0.04 
freq.     859.87  E(vib)   ...       0.04 
freq.     911.77  E(vib)   ...       0.03 
freq.     911.80  E(vib)   ...       0.03 
freq.     919.01  E(vib)   ...       0.03 
freq.     919.04  E(vib)   ...       0.03 
freq.    1025.92  E(vib)   ...       0.02 
freq.    1025.94  E(vib)   ...       0.02 
freq.    1032.77  E(vib)   ...       0.02 
freq.    1032.79  E(vib)   ...       0.02 
freq.    1069.80  E(vib)   ...       0.02 
freq.    1069.81  E(vib)   ...       0.02 
freq.    1077.98  E(vib)   ...       0.02 
freq.    1077.99  E(vib)   ...       0.02 
freq.    1153.28  E(vib)   ...       0.01 
freq.    1153.33  E(vib)   ...       0.01 
freq.    1278.52  E(vib)   ...       0.01 
freq.    1279.05  E(vib)   ...       0.01 
freq.    1402.24  E(vib)   ...       0.00 
freq.    1402.26  E(vib)   ...       0.00 
freq.    1419.21  E(vib)   ...       0.00 
freq.    1419.23  E(vib)   ...       0.00 
freq.    1461.77  E(vib)   ...       0.00 
freq.    1461.77  E(vib)   ...       0.00 
freq.    1462.24  E(vib)   ...       0.00 
freq.    1462.24  E(vib)   ...       0.00 
freq.    3242.40  E(vib)   ...       0.00 
freq.    3242.42  E(vib)   ...       0.00 
freq.    3243.52  E(vib)   ...       0.00 
freq.    3243.54  E(vib)   ...       0.00 
freq.    3257.40  E(vib)   ...       0.00 
freq.    3257.41  E(vib)   ...       0.00 
freq.    3258.17  E(vib)   ...       0.00 
freq.    3258.19  E(vib)   ...       0.00 
freq.    3269.39  E(vib)   ...       0.00 
freq.    3269.55  E(vib)   ...       0.00 

------------
INNER ENERGY
------------

The inner energy is: U= E(el) + E(ZPE) + E(vib) + E(rot) + E(trans)
    E(el)   - is the total energy from the electronic structure calculation
              = E(kin-el) + E(nuc-el) + E(el-el) + E(nuc-nuc)
    E(ZPE)  - the the zero temperature vibrational energy from the frequency calculation
    E(vib)  - the the finite temperature correction to E(ZPE) due to population
              of excited vibrational states
    E(rot)  - is the rotational thermal energy
    E(trans)- is the translational thermal energy

Summary of contributions to the inner energy U:
Electronic energy                ...  -1650.27566680 Eh
Zero point energy                ...      0.17050080 Eh     106.99 kcal/mol
Thermal vibrational correction   ...      0.00565111 Eh       3.55 kcal/mol
Thermal rotational correction    ...      0.00141627 Eh       0.89 kcal/mol
Thermal translational correction ...      0.00141627 Eh       0.89 kcal/mol
-----------------------------------------------------------------------
Total thermal energy                  -1650.09668235 Eh


Summary of corrections to the electronic energy:
(perhaps to be used in another calculation)
Total thermal correction                  0.00848365 Eh       5.32 kcal/mol
Non-thermal (ZPE) correction              0.17050080 Eh     106.99 kcal/mol
-----------------------------------------------------------------------
Total correction                          0.17898445 Eh     112.31 kcal/mol


--------
ENTHALPY
--------

The enthalpy is H = U + kB*T
                kB is Boltzmann's constant
Total thermal energy              ...  -1650.09668235 Eh 
Thermal Enthalpy correction       ...      0.00094421 Eh       0.59 kcal/mol
-----------------------------------------------------------------------
Total Enthalpy                    ...  -1650.09573814 Eh


WARNING (ORCA/SYM): A non-planar off-center atom subset has been encountered
in function TSymmetryFinder::FilterSubsetShapes() which cannot occur under
regular conditions. The full point group may not be assigned correctly. If the
symmetry appears to be too low, please try increasing the cleaning tolerance
using option SymThresh in the %symmetry input block. If the problem persists,
you may post a message in the ORCA forum.

WARNING (ORCA/SYM): A non-planar off-center atom subset has been encountered
in function TSymmetryFinder::FilterSubsetShapes() which cannot occur under
regular conditions. The full point group may not be assigned correctly. If the
symmetry appears to be too low, please try increasing the cleaning tolerance
using option SymThresh in the %symmetry input block. If the problem persists,
you may post a message in the ORCA forum.

Note: Only C1 symmetry has been detected, increase convergence thresholds 
      if your molecule has a higher symmetry. Symmetry factor of 1.0 is   
      used for the rotational entropy correction. 
 

Note: Rotational entropy computed according to Herzberg 
Infrared and Raman Spectra, Chapter V,1, Van Nostrand Reinhold, 1945 
Point Group:  C1, Symmetry Number:   1  
Rotational constants in cm-1:     0.073915     0.035993     0.035993 

Vibrational entropy computed according to the QRRHO of S. Grimme
Chem.Eur.J. 2012 18 9955 using a reference frequency of 100.0 cm-1


-------
ENTROPY
-------

The entropy contributions are T*S = T*(S(el)+S(vib)+S(rot)+S(trans))
     S(el)   - electronic entropy
     S(vib)  - vibrational entropy
     S(rot)  - rotational entropy
     S(trans)- translational entropy
The entropies will be listed as multiplied by the temperature to get
units of energy

Electronic entropy                ...      0.00000000 Eh      0.00 kcal/mol
Vibrational entropy               ...      0.00901053 Eh      5.65 kcal/mol
Rotational entropy                ...      0.01387940 Eh      8.71 kcal/mol
Translational entropy             ...      0.01975045 Eh     12.39 kcal/mol
-----------------------------------------------------------------------
Final entropy term                ...      0.04264038 Eh     26.76 kcal/mol

In case the symmetry of your molecule has not been determined correctly
or in case you have a reason to use a different symmetry number we print 
out the resulting rotational entropy values for sn=1,12:

 non-linear molecules -----------------------------------
|  sn= 1 | S(rot)=       0.01387940 Eh      8.71 kcal/mol|
|  sn= 2 | S(rot)=       0.01322494 Eh      8.30 kcal/mol|
|  sn= 3 | S(rot)=       0.01284211 Eh      8.06 kcal/mol|
|  sn= 4 | S(rot)=       0.01257049 Eh      7.89 kcal/mol|
|  sn= 5 | S(rot)=       0.01235980 Eh      7.76 kcal/mol|
|  sn= 6 | S(rot)=       0.01218766 Eh      7.65 kcal/mol|
|  sn= 7 | S(rot)=       0.01204211 Eh      7.56 kcal/mol|
|  sn= 8 | S(rot)=       0.01191603 Eh      7.48 kcal/mol|
|  sn= 9 | S(rot)=       0.01180482 Eh      7.41 kcal/mol|
|  sn=10 | S(rot)=       0.01170534 Eh      7.35 kcal/mol|
|  sn=11 | S(rot)=       0.01161535 Eh      7.29 kcal/mol|
|  sn=12 | S(rot)=       0.01153320 Eh      7.24 kcal/mol|
 linear molecules ---------------------------------------
|  Dinfh | S(rot)=       0.00846468 Eh      5.31 kcal/mol|
|  Cinfv | S(rot)=       0.00911913 Eh      5.72 kcal/mol|
 --------------------------------------------------------


-------------------
GIBBS FREE ENERGY
-------------------

The Gibbs free energy is G = H - T*S

Total enthalpy                    ...  -1650.09573814 Eh 
Total entropy correction          ...     -0.04264038 Eh    -26.76 kcal/mol
-----------------------------------------------------------------------
Final Gibbs free energy         ...  -1650.13837852 Eh

For completeness - the Gibbs free energy minus the electronic energy
G-E(el)                           ...      0.13728828 Eh     86.15 kcal/mol


Maximum memory used throughout the entire PROP-calculation: 165.0 MB

--------------------------------
SUGGESTED CITATIONS FOR THIS RUN
--------------------------------

Below you find a list of papers that are relevant to this ORCA run
We neither can nor want to force you to cite these papers, but we appreciate if you do
You receive ORCA, which is the product of decades of hard work by many enthusiastic individuals, for free
The only thing we kindly ask in return is that you cite our papers,
We deeply appreciate it, if you show your appreciation for ORCA by not just citing the generic ORCA reference.

Please note that relegating all ORCA citations to the supporting information does *not* help us.
SI sections are not indexed - citations you put there will not count into any citation statistics
But we need these citations in order to attract the funding resources that allow us to do what we are doing

Therefore, if you are a happy ORCA user, please consider citing a few of the papers listed below in the main body of your paper

In addition to the list printed below, the program has created the file FEROCE87-S1.bibtex that contains the list in bibtex format
You can import this file easily into all common literature databanks and citation aid programs


List of essential papers. We consider these as the minimum necessary citations

  1. Neese,F.
     Software update: the ORCA program system, version 5.0
     WIRES Comput. Molec. Sci., 2022 12(1)e1606
     doi.org/10.1002/wcms.1606

List of papers to cite with high priority. The work reported in these papers was absolutely
necessary for this run to complete.
Our perspective: the developers of density functionals and basis sets usually get cited in chemistry papers
Good! But without the algorithms to do something with them, the functionals or basis sets would not do anything.
Hence, in our opinion, the algorithm design and method developments papers are equally worthy of getting cited

  1. Neese,F.
     An improvement of the resolution of the identity approximation for the formation of the Coulomb matrix
     J. Comp. Chem., 2003 24(14)1740-1747
     doi.org/10.1002/jcc.10318
  2. Neese,F.; Wennmohs,F.; Hansen,A.; Becker,U.
     Efficient, approximate and parallel Hartree-Fock and hybrid DFT calculations. A 'chain-of-spheres' algorithm for the Hartree-Fock exchange
     Chem. Phys., 2009 356(1-3)98-109
     doi.org/10.1016/j.chemphys.2008.10.036
  3. Bykov,D.; Petrenko,T.; Izsak,R.; Kossmann,S.; Becker,U.; Valeev,E.; Neese,F.
     Efficient implementation of the analytic second derivatives of Hartree-Fock and hybrid DFT energies: a detailed analysis of different approximations
     Molec. Phys., 2015 113 1961-1977
     doi.org/10.1080/00268976.2015.1025114
  4. Helmich-Paris,B.; de Souza,B.; Neese,F.; Izsák,R.
     An improved chain of spheres for exchange algorithm
     J. Chem. Phys., 2021 155 104109
     doi.org/doi: 10.1063/5.0058766.
  5. Neese,F.
     The SHARK Integral Generation and Digestion System
     J. Comp. Chem., 2022  1-16
     doi.org/10.1002/jcc.26942

List of suggested additional citations. These are papers that are important in the 'surrounding' of 
of this run, or papers that preceded the highly important papers. If you like your results we are grateful for a citation.

  1. Izsak,R.; Neese,F.
     An overlap fitted chain of spheres exchange method
     J. Chem. Phys., 2011 135 144105
     doi.org/10.1063/1.3646921
  2. Izsak,R.; Hansen,A.; Neese,F.
     The resolution of identity and chain of spheres approximations for the LPNO-CCSD singles Fock term
     Molec. Phys., 2012 110 2413-2417
     doi.org/10.1080/00268976.2012.687466
  3. Neese,F.
     The ORCA program system
     WIRES Comput. Molec. Sci., 2012 2(1)73-78
     doi.org/10.1002/wcms.81
  4. Izsak,R.; Neese,F.; Klopper,W.
     Robust fitting techniques in the chain of spheres approximation to the Fock exchange: The role of the complementary space
     J. Chem. Phys., 2013 139 
     doi.org/10.1063/1.4819264
  5. Neese,F.
     Software update: the ORCA program system, version 4.0
     WIRES Comput. Molec. Sci., 2018 8(1)1-6
     doi.org/10.1002/wcms.1327
  6. Neese,F.; Wennmohs,F.; Becker,U.; Riplinger,C.
     The ORCA quantum chemistry program package
     J. Chem. Phys., 2020 152 Art. No. L224108
     doi.org/10.1063/5.0004608

List of optional additional citations

  1. Neese,F.
     Approximate second-order SCF convergence for spin unrestricted wavefunctions
     Chem. Phys. Lett., 2000 325(1-3)93-98
     doi.org/10.1016/s0009-2614(00)00662-x

Timings for individual modules:

Sum of individual times          ...     3326.460 sec (=  55.441 min)
Startup calculation              ...      168.066 sec (=   2.801 min)   5.1 %
SCF iterations                   ...     1609.994 sec (=  26.833 min)  48.4 %
Property integrals               ...      190.885 sec (=   3.181 min)   5.7 %
SCF Response                     ...      174.013 sec (=   2.900 min)   5.2 %
Property calculations            ...      316.955 sec (=   5.283 min)   9.5 %
SCF Gradient evaluation          ...      865.066 sec (=  14.418 min)  26.0 %
Geometry relaxation              ...        1.479 sec (=   0.025 min)   0.0 %
                             ****ORCA TERMINATED NORMALLY****
TOTAL RUN TIME: 0 days 0 hours 56 minutes 22 seconds 554 msec
