
                                 *****************
                                 * O   R   C   A *
                                 *****************

                                            #,                                       
                                            ###                                      
                                            ####                                     
                                            #####                                    
                                            ######                                   
                                           ########,                                 
                                     ,,################,,,,,                         
                               ,,#################################,,                 
                          ,,##########################################,,             
                       ,#########################################, ''#####,          
                    ,#############################################,,   '####,        
                  ,##################################################,,,,####,       
                ,###########''''           ''''###############################       
              ,#####''   ,,,,##########,,,,          '''####'''          '####       
            ,##' ,,,,###########################,,,                        '##       
           ' ,,###''''                  '''############,,,                           
         ,,##''                                '''############,,,,        ,,,,,,###''
      ,#''                                            '''#######################'''  
     '                                                          ''''####''''         
             ,#######,   #######,   ,#######,      ##                                
            ,#'     '#,  ##    ##  ,#'     '#,    #''#        ,####,   ,####,        
            ##       ##  ##   ,#'  ##            #'  '#       #'       #'  '#        
            ##       ##  #######   ##           ,######,      #####,   #    #        
            '#,     ,#'  ##    ##  '#,     ,#' ,#      #,     #,   #   #,  ,#        
             '#######'   ##     ##  '#######'  #'      '#     '####' # '####'        



                #########################################################
                #                        -***-                          #
                #          Department of theory and spectroscopy        #
                #                                                       #
                #                      Frank Neese                      #
                #                                                       #
                #     Directorship, Architecture, Infrastructure        #
                #                    SHARK, DRIVERS                     #
                #        Core code/Algorithms in most modules           #
                #                                                       #
                #        Max Planck Institute fuer Kohlenforschung      #
                #                Kaiser Wilhelm Platz 1                 #
                #                 D-45470 Muelheim/Ruhr                 #
                #                      Germany                          #
                #                                                       #
                #                  All rights reserved                  #
                #                        -***-                          #
                #########################################################


                         Program Version 6.0.1  -  RELEASE   -


 With contributions from (in alphabetic order):
[Max-Planck-Institut fuer Kohlenforschung]                               
  Daniel Aravena         : Magnetic Suceptibility                        
  Michael Atanasov       : Ab Initio Ligand Field Theory (pilot matlab implementation)
  Alexander A. Auer      : GIAO ZORA, VPT2 properties, NMR spectrum      
  Ute Becker             : All parallelization in ORCA, NUMFREQ, NUMCALC 
  Giovanni Bistoni       : ED, misc. LED, open-shell LED, HFLD           
  Martin Brehm           : Molecular dynamics                            
  Dmytro Bykov           : pre 5.0 version of the SCF Hessian            
  Marcos Casanova-Páez   : Triplet and SCS-CIS(D). UHF-(DLPNO)-IP/EA/STEOM-CCSD. UHF-CVS-IP/STEOM-CCSD   
  Vijay G. Chilkuri      : MRCI spin determinant printing, contributions to CSF-ICE 
  Pauline Colinet        : FMM embedding                                 
  Dipayan Datta          : RHF DLPNO-CCSD density                        
  Achintya Kumar Dutta   : EOM-CC, STEOM-CC                              
  Nicolas Foglia         : Exact transition moments, OPA infrastructure, MCD improvements    
  Dmitry Ganyushin       : Spin-Orbit,Spin-Spin,Magnetic field MRCI      
  Miquel Garcia-Rates    : C-PCM and meta-GGA Hessian, CCSD/C-PCM, Gaussian charge scheme 
  Tiago L. C. Gouveia    : GS-ROHF, GS-ROCIS                             
  Yang Guo               : DLPNO-NEVPT2, F12-NEVPT2, CIM, IAO-localization        
  Andreas Hansen         : Spin unrestricted coupled pair/coupled cluster methods 
  Ingolf Harden          : AUTO-CI MPn and infrastructure                
  Benjamin Helmich-Paris : MC-RPA, TRAH-(SCF,CASSCF), AVAS, COSX integrals, SCF dyn. polar. 
  Lee Huntington         : MR-EOM, pCC                                   
  Robert Izsak           : Overlap fitted RIJCOSX, COSX-SCS-MP3, EOM     
  Riya Kayal             : Wick's Theorem for AUTO-CI, AUTO-CI UHF-CCSDT 
  Emily Kempfer          : AUTO-CI, RHF CISDT and CCSDT                  
  Christian Kollmar      : KDIIS, OOCD, Brueckner-CCSD(T), CCSD density, CASPT2, CASPT2-K, improved NEVPT2 
  Axel Koslowski         : Symmetry handling                             
  Simone Kossmann        : meta-GGA functionals, TD-DFT gradient, OOMP2, (MP2 Hessian; deprecated post 5.0) 
  Lucas Lang             : DCDCAS                                        
  Marvin Lechner         : AUTO-CI (C++ implementation), FIC-MRCC        
  Spencer Leger          : CASSCF response                               
  Dagmar Lenk            : GEPOL surface, SMD, ORCA-2-JSON               
  Dimitrios Liakos       : Extrapolation schemes; Compound Job, initial MDCI parallelization 
  Dimitrios Manganas     : Further ROCIS development; embedding schemes. LFT, Crystal Embedding 
  Dimitrios Pantazis     : SARC Basis sets                               
  Anastasios Papadopoulos: AUTO-CI, single reference methods and gradients 
  Taras Petrenko         : pre 6.0 DFT Hessian and TD-DFT gradient, (ASA, deprecated), ECA, 1-Electron XAS/XES, NRVS 
  Peter Pinski           : DLPNO-MP2, DLPNO-MP2 Gradient                 
  Christoph Reimann      : Effective Core Potentials                     
  Marius Retegan         : Local ZFS, SOC                                
  Christoph Riplinger    : Optimizer, TS searches, QM/MM, DLPNO-CCSD(T), (RO)-DLPNO pert. Triples 
  Michael Roemelt        : Original ROCIS implementation                 
  Masaaki Saitow         : Open-shell DLPNO-CCSD energy and density      
  Barbara Sandhoefer     : DKH picture change effects                    
  Kantharuban Sivalingam : CASSCF convergence/infrastructure, NEVPT2 and variants, FIC-MRCI 
  Bernardo de Souza      : ESD, SOC TD-DFT                               
  Georgi L. Stoychev     : AutoAux, RI-MP2 NMR, DLPNO-MP2 response, X2C  
  Van Anh Tran           : RI-MP2 g-tensors                              
  Willem Van den Heuvel  : Paramagnetic NMR                              
  Zikuan Wang            : NOTCH, Electric field optimization            
  Frank Wennmohs         : Technical directorship and infrastructure     
  Hang Xu                : AUTO-CI-Response properties                   
                                                                         
[FACCTs GmbH]                                                            
  Markus Bursch, Miquel Garcia-Rates, Christoph Riplinger, Bernardo de Souza, Georgi L. Stoychev 
                                                                 
  APM, Basis sets (HGBS, AHGBS, def-TZVP (Ac-Lr), def2-XVPD (La-Lu)), CI-OPT, improved COSX, DLPNO-Multilevel,           
  DOCKER, DRACO, updates on ESD, GOAT, IRC, LR-CPCM, MBIS, meta-GGA TD-DFT gradient, ML-optimized integration grids, 
  MM, NACMEs, nearIR, NEB, NEB-TS, NL-DFT gradient (VV10), 2- and 3-layer-ONIOM, interface openCOSMO-RS, QMMM,   
  Crystal-QMMM, SF, symmetry and pop. for TD-DFT, r2SCAN hybrids, SOLVATOR                                   
                                                                         
[Other institutions]                                                     
  V. Asgeirsson          : NEB                                           
  Christoph Bannwarth    : sTDA-DFT, sTD-DFT, PBEh-3c, B97-3c, D3        
  Sebastian Ehlert       : rSCAN, r2SCAN, r2SCAN-3c, D4, dhf basis sets  
  Marvin Friede          : D4 for Fr, Ra, Ac-Lr                          
  Lars Goerigk           : TD-DFT with DH, B97 family of functionals     
  Stefan Grimme          : VdW corrections, initial TS optimization, DFT functionals, gCP, sTDA/sTD-DF 
  Waldemar Hujo          : DFT-NL                                        
  H. Jonsson             : NEB                                           
  Holger Kruse           : gCP                                           
  Marcel Mueller         : wB97X-3c, vDZP basis set                      
  Hagen Neugebauer       : wr2SCAN                                       
  Tobias Risthaus        : range-separated hybrid DFT                    
  Lukas Wittmann         : regularized MP2, r2SCAN double-hybrids, wr2SCAN        
                                                                         
We gratefully acknowledge several colleagues who have allowed us to      
interface, adapt or use parts of their codes:                            
  Ed Valeev, F. Pavosevic, A. Kumar             : LibInt (2-el integral package), F12 methods 
  Garnet Chan, S. Sharma, J. Yang, R. Olivares  : DMRG                   
  Ulf Ekstrom                                   : XCFun DFT Library      
  Mihaly Kallay                                 : mrcc  (arbitrary order and MRCC methods)
  Frank Weinhold                                : gennbo (NPA and NBO analysis)           
  Simon Mueller                                 : openCOSMO-RS                            
  Christopher J. Cramer and Donald G. Truhlar   : smd solvation model                     
  S Lehtola, MJT Oliveira, MAL Marques          : LibXC Library                           
  Liviu Ungur et al                             : ANISO software                          


 Your calculation uses the libint2 library for the computation of 2-el integrals
 For citations please refer to: http://libint.valeyev.net

 Your ORCA version has been built with support for libXC version: 6.2.2
 For citations please refer to: https://libxc.gitlab.io

 This ORCA versions uses:
   CBLAS   interface :  Fast vector & matrix operations
   LAPACKE interface :  Fast linear algebra routines
   SCALAPACK package :  Parallel linear algebra routines
   Shared memory     :  Shared parallel matrices
   BLAS/LAPACK       :  OpenBLAS 0.3.27  USE64BITINT DYNAMIC_ARCH NO_AFFINITY Cooperlake SINGLE_THREADED
        Core in use  :  Cooperlake
   Copyright (c) 2011-2014, The OpenBLAS Project


NOTE: MaxCore=3600 MB was set to SCF,MP2,MDCI,CIPSI,MRCI and CIS
      => If you want to overwrite this, your respective input block should be placed after the MaxCore statement
Warning: RI is on but no J-basis has been assigned. Assigning Def2/J (nothing to worry about!)
================================================================================

----- Orbital basis set information -----
Your calculation utilizes the basis: def2-TZVP
   F. Weigend and R. Ahlrichs, Phys. Chem. Chem. Phys. 7, 3297 (2005).

----- AuxJ basis set information -----
Your calculation utilizes the auxiliary basis: def2/J
   F. Weigend, Phys. Chem. Chem. Phys. 8, 1057 (2006).

================================================================================
                                        WARNINGS
                       Please study these warnings very carefully!
================================================================================


WARNING: Geometry Optimization
  ===> : Switching off AutoStart
         For restart on a previous wavefunction, please use MOREAD

================================================================================
                                       INPUT FILE
================================================================================
NAME = GORKIJ-S5.inp
|  1> ! PBE0 def2-TZVP  Opt Freq DEFGRID3
|  2> 
|  3> %maxcore 3600
|  4> 
|  5> %pal
|  6>     nprocs 16
|  7> end
|  8> 
|  9> *xyz 0 1
| 10> B 13.0433 11.5131 15.4155
| 11> H 13.3984 12.2897 15.9161
| 12> H 12.6302 11.8526 14.583
| 13> B 14.9289 6.4526 19.7461
| 14> H 14.7108 5.9726 20.5845
| 15> H 15.7488 6.0429 19.3698
| 16> C 14.8628 9.6591 15.8258
| 17> C 12.0884 10.0461 17.3851
| 18> C 14.9309 9.0883 19.4308
| 19> C 13.489 6.9124 17.5717
| 20> C 15.987 9.9406 13.8886
| 21> H 16.6509 9.8561 13.214
| 22> C 14.9034 10.7243 13.8526
| 23> H 14.6468 11.2922 13.1369
| 24> C 10.625 11.128 16.0903
| 25> H 10.2699 11.6316 15.367
| 26> C 9.9225 10.6005 17.1126
| 27> H 8.9861 10.6718 17.2545
| 28> C 16.2657 9.5263 21.2083
| 29> H 16.7887 9.9915 21.8494
| 30> C 16.0563 8.2088 21.1563
| 31> H 16.4175 7.5664 21.7543
| 32> C 13.0823 5.042 18.7605
| 33> H 13.0913 4.4147 19.4739
| 34> C 12.4118 4.9109 17.6121
| 35> H 11.865 4.1765 17.3532
| 36> C 17.0527 8.3582 15.5052
| 37> C 18.3343 9.1887 15.6453
| 38> H 18.5179 9.6504 14.8019
| 39> H 19.0836 8.5981 15.864
| 40> H 18.2193 9.8492 16.361
| 41> C 17.2263 7.2895 14.4303
| 42> H 16.4008 6.7661 14.3533
| 43> H 17.967 6.6975 14.6745
| 44> H 17.4213 7.719 13.5711
| 45> C 16.7357 7.6825 16.8244
| 46> H 16.6303 8.3616 17.5218
| 47> H 17.4687 7.078 17.0661
| 48> H 15.9054 7.1705 16.7378
| 49> C 10.4378 9.2622 19.1866
| 50> C 10.4175 7.7592 19.0088
| 51> H 9.7599 7.5202 18.3238
| 52> H 10.1773 7.3334 19.8578
| 53> H 11.3067 7.4516 18.7293
| 54> C 11.4559 9.6509 20.2574
| 55> H 12.3478 9.3505 19.9852
| 56> H 11.2153 9.2271 21.1066
| 57> H 11.4582 10.6238 20.3674
| 58> C 9.0622 9.7323 19.6257
| 59> H 9.0528 10.7113 19.673
| 60> H 8.8546 9.3608 20.5091
| 61> H 8.3905 9.4293 18.9787
| 62> C 15.5865 11.549 19.8729
| 63> C 17.0334 11.9654 19.6032
| 64> H 17.577 11.7841 20.3979
| 65> H 17.0647 12.9238 19.3967
| 66> H 17.3856 11.455 18.8423
| 67> C 14.7252 11.8902 18.6925
| 68> H 15.0794 11.4499 17.8914
| 69> H 14.7249 12.8604 18.5571
| 70> H 13.8089 11.5836 18.8567
| 71> C 15.0547 12.2792 21.115
| 72> H 14.1451 11.9743 21.3093
| 73> H 15.0469 13.2442 20.9487
| 74> H 15.6354 12.084 21.8817
| 75> C 12.1795 6.2705 15.4707
| 76> C 13.3472 6.6735 14.6151
| 77> H 13.6434 7.5716 14.8701
| 78> H 13.0757 6.6735 13.6733
| 79> H 14.081 6.0377 14.7445
| 80> C 11.0728 7.2987 15.4632
| 81> H 10.3231 6.9769 16.0093
| 82> H 10.7675 7.443 14.5435
| 83> H 11.4086 8.1423 15.8335
| 84> C 11.6332 4.9484 14.9343
| 85> H 12.3392 4.2691 14.9616
| 86> H 11.3336 5.0694 14.0089
| 87> H 10.8781 4.6581 15.4872
| 88> Fe 13.9114 8.9896 17.5911
| 89> N 15.9514 9.2768 15.1028
| 90> N 14.2297 10.5568 15.0428
| 91> N 11.9477 10.8088 16.2794
| 92> N 10.8266 9.9376 17.9115
| 93> N 15.5682 10.0847 20.1447
| 94> N 15.2282 7.938 20.0884
| 95> N 13.7611 6.2449 18.7358
| 96> N 12.6687 6.0564 16.8723
| 97> *
| 98> 
| 99>                          ****END OF INPUT****
================================================================================

                       *****************************
                       * Geometry Optimization Run *
                       *****************************

Geometry optimization settings:
Update method            Update   .... BFGS
Choice of coordinates    CoordSys .... (2022) Redundant Internals
Initial Hessian          InHess   .... Almloef's Model
Max. no of cycles        MaxIter  .... 261

Convergence Tolerances:
Energy Change            TolE     ....  5.0000e-06 Eh
Max. Gradient            TolMAXG  ....  3.0000e-04 Eh/bohr
RMS Gradient             TolRMSG  ....  1.0000e-04 Eh/bohr
Max. Displacement        TolMAXD  ....  4.0000e-03 bohr
RMS Displacement         TolRMSD  ....  2.0000e-03 bohr
Strict Convergence                .... False

------------------------------------------------------------------------------
                        ORCA OPTIMIZATION COORDINATE SETUP
------------------------------------------------------------------------------

The optimization will be done in redundant internal coordinates (2022)
Making redundant internal coordinates   ...  (2022 redundants) done
Evaluating the initial hessian          ...  (Almloef) done
Evaluating the coordinates              ...  done
Calculating the B-matrix                .... done
Calculating the G-matrix                .... done
Diagonalizing the G-matrix              .... done
Small eigenvalue found = 3.193e-03
Small eigenvalue found = 3.301e-03
Small eigenvalue found = 3.908e-03
Small eigenvalue found = 4.050e-03
Small eigenvalue found = 4.441e-03
Small eigenvalue found = 7.697e-03
Small eigenvalue found = 7.850e-03
Small eigenvalue found = 1.429e-02
Small eigenvalue found = 1.613e-02
Small eigenvalue found = 1.704e-02
Small eigenvalue found = 1.855e-02
Small eigenvalue found = 1.966e-02
The first mode is                       ....  223
The number of degrees of freedom        ....  255

    -----------------------------------------------------------------
                    Redundant Internal Coordinates


    -----------------------------------------------------------------
         Definition                    Initial Value    Approx d2E/dq
    -----------------------------------------------------------------
      1. B(H   1,B   0)                  0.9899         0.602591   
      2. B(H   2,B   0)                  0.9894         0.603527   
      3. B(H   4,B   3)                  0.9904         0.601387   
      4. B(H   5,B   3)                  0.9908         0.600485   
      5. B(H  11,C  10)                  0.9503         0.601692   
      6. B(C  12,C  10)                  1.3378         0.756908   
      7. B(H  13,C  12)                  0.9490         0.604501   
      8. B(H  15,C  14)                  0.9502         0.601827   
      9. B(C  16,C  14)                  1.3479         0.729275   
     10. B(H  17,C  16)                  0.9498         0.602768   
     11. B(H  19,C  18)                  0.9492         0.604070   
     12. B(C  20,C  18)                  1.3351         0.764553   
     13. B(H  21,C  20)                  0.9491         0.604306   
     14. B(H  23,C  22)                  0.9500         0.602230   
     15. B(C  24,C  22)                  1.3363         0.761174   
     16. B(H  25,C  24)                  0.9515         0.598938   
     17. B(C  27,C  26)                  1.5336         0.368699   
     18. B(H  28,C  27)                  0.9789         0.541643   
     19. B(H  29,C  27)                  0.9788         0.541756   
     20. B(H  30,C  27)                  0.9807         0.538089   
     21. B(C  31,C  26)                  1.5257         0.379566   
     22. B(H  32,C  31)                  0.9805         0.538477   
     23. B(H  33,C  31)                  0.9791         0.541100   
     24. B(H  34,C  31)                  0.9802         0.539089   
     25. B(C  35,C  26)                  1.5157         0.393724   
     26. B(H  36,C  35)                  0.9791         0.541183   
     27. B(H  37,C  35)                  0.9804         0.538677   
     28. B(H  38,C  35)                  0.9793         0.540788   
     29. B(C  40,C  39)                  1.5136         0.396750   
     30. B(H  41,C  40)                  0.9792         0.541050   
     31. B(H  42,C  40)                  0.9797         0.540017   
     32. B(H  43,C  40)                  0.9815         0.536376   
     33. B(C  44,C  39)                  1.5278         0.376581   
     34. B(H  45,C  44)                  0.9797         0.540001   
     35. B(H  46,C  44)                  0.9791         0.541200   
     36. B(H  47,C  44)                  0.9791         0.541196   
     37. B(C  48,C  39)                  1.5186         0.389584   
     38. B(H  49,C  48)                  0.9802         0.539042   
     39. B(H  50,C  48)                  0.9806         0.538296   
     40. B(H  51,C  48)                  0.9806         0.538202   
     41. B(C  53,C  52)                  1.5296         0.374137   
     42. B(H  54,C  53)                  0.9798         0.539899   
     43. B(H  55,C  53)                  0.9809         0.537645   
     44. B(H  56,C  53)                  0.9816         0.536268   
     45. B(C  57,C  52)                  1.5005         0.416284   
     46. B(H  58,C  57)                  0.9803         0.538723   
     47. B(H  59,C  57)                  0.9796         0.540201   
     48. B(H  60,C  57)                  0.9801         0.539240   
     49. B(C  61,C  52)                  1.5358         0.365641   
     50. B(H  62,C  61)                  0.9788         0.541756   
     51. B(H  63,C  61)                  0.9793         0.540890   
     52. B(H  64,C  61)                  0.9814         0.536647   
     53. B(C  66,C  65)                  1.5027         0.413046   
     54. B(H  67,C  66)                  0.9795         0.540483   
     55. B(H  68,C  66)                  0.9802         0.539110   
     56. B(H  69,C  66)                  0.9795         0.540376   
     57. B(C  70,C  65)                  1.5106         0.401110   
     58. B(H  71,C  70)                  0.9817         0.535958   
     59. B(H  72,C  70)                  0.9797         0.539940   
     60. B(H  73,C  70)                  0.9806         0.538257   
     61. B(C  74,C  65)                  1.5278         0.376631   
     62. B(H  75,C  74)                  0.9801         0.539180   
     63. B(H  76,C  74)                  0.9802         0.539042   
     64. B(H  77,C  74)                  0.9799         0.539667   
     65. B(Fe 78,C   9)                  2.1198         0.433024   
     66. B(Fe 78,C   8)                  2.1056         0.456188   
     67. B(Fe 78,C   7)                  2.1171         0.437401   
     68. B(Fe 78,C   6)                  2.1142         0.442090   
     69. B(N  79,C  26)                  1.4895         0.388265   
     70. B(N  79,C  10)                  1.3843         0.571520   
     71. B(N  79,C   6)                  1.3616         0.621153   
     72. B(N  80,C  12)                  1.3779         0.585114   
     73. B(N  80,C   6)                  1.3490         0.650589   
     74. B(N  80,B   0)                  1.5687         0.336138   
     75. B(N  81,C  14)                  1.3737         0.594025   
     76. B(N  81,C   7)                  1.3506         0.646784   
     77. B(N  81,B   0)                  1.5629         0.343415   
     78. B(N  82,C  39)                  1.4944         0.381349   
     79. B(N  82,C  16)                  1.3766         0.587797   
     80. B(N  82,C   7)                  1.3715         0.598954   
     81. B(N  83,C  52)                  1.4894         0.388374   
     82. B(N  83,C  18)                  1.3891         0.561478   
     83. B(N  83,C   8)                  1.3815         0.577289   
     84. B(N  84,C  20)                  1.3782         0.584344   
     85. B(N  84,C   8)                  1.3579         0.629531   
     86. B(N  84,B   3)                  1.5534         0.355583   
     87. B(N  85,C  22)                  1.3814         0.577496   
     88. B(N  85,C   9)                  1.3692         0.604021   
     89. B(N  85,B   3)                  1.5581         0.349573   
     90. B(N  86,C  65)                  1.4999         0.373740   
     91. B(N  86,C  24)                  1.3876         0.564524   
     92. B(N  86,C   9)                  1.3765         0.588021   
     93. A(H   1,B   0,N  80)          109.0935         0.351809   
     94. A(N  80,B   0,N  81)          112.7533         0.353249   
     95. A(H   2,B   0,N  81)          109.0885         0.353179   
     96. A(H   2,B   0,N  80)          108.9672         0.351901   
     97. A(H   1,B   0,H   2)          107.8241         0.351739   
     98. A(H   1,B   0,N  81)          108.9948         0.353086   
     99. A(H   4,B   3,N  85)          108.6177         0.354031   
    100. A(N  84,B   3,N  85)          114.5040         0.357713   
    101. A(H   5,B   3,N  85)          108.5928         0.353940   
    102. A(H   4,B   3,H   5)          107.6577         0.351320   
    103. A(H   5,B   3,N  84)          108.6414         0.354965   
    104. A(H   4,B   3,N  84)          108.6221         0.355055   
    105. A(Fe 78,C   6,N  79)          135.5817         0.455274   
    106. A(N  79,C   6,N  80)          104.7058         0.432275   
    107. A(Fe 78,C   6,N  80)          118.9596         0.459133   
    108. A(Fe 78,C   7,N  81)          116.8198         0.457751   
    109. A(N  81,C   7,N  82)          105.2512         0.429007   
    110. A(Fe 78,C   7,N  82)          135.6758         0.451394   
    111. A(N  83,C   8,N  84)          105.0530         0.424127   
    112. A(Fe 78,C   8,N  83)          135.1251         0.451822   
    113. A(Fe 78,C   8,N  84)          119.3012         0.459006   
    114. A(N  85,C   9,N  86)          104.3147         0.422391   
    115. A(Fe 78,C   9,N  85)          115.4886         0.451260   
    116. A(Fe 78,C   9,N  86)          137.1183         0.449065   
    117. A(C  12,C  10,N  79)          106.4807         0.440498   
    118. A(H  11,C  10,C  12)          126.7908         0.399119   
    119. A(H  11,C  10,N  79)          126.7285         0.377619   
    120. A(C  10,C  12,H  13)          126.1486         0.399446   
    121. A(H  13,C  12,N  80)          126.2987         0.379465   
    122. A(C  10,C  12,N  80)          107.5527         0.442373   
    123. A(H  15,C  14,N  81)          125.9980         0.380168   
    124. A(C  16,C  14,N  81)          107.8471         0.440612   
    125. A(H  15,C  14,C  16)          126.1549         0.396535   
    126. A(C  14,C  16,N  82)          106.6372         0.439774   
    127. A(C  14,C  16,H  17)          126.7107         0.396644   
    128. A(H  17,C  16,N  82)          126.6521         0.379577   
    129. A(H  19,C  18,N  83)          126.6421         0.376720   
    130. A(C  20,C  18,N  83)          106.7457         0.439888   
    131. A(H  19,C  18,C  20)          126.6120         0.400103   
    132. A(H  21,C  20,N  84)          125.7247         0.379357   
    133. A(C  18,C  20,N  84)          108.5616         0.443072   
    134. A(C  18,C  20,H  21)          125.7137         0.400131   
    135. A(H  23,C  22,N  85)          125.7142         0.378358   
    136. A(H  23,C  22,C  24)          125.8269         0.399577   
    137. A(C  24,C  22,N  85)          108.4589         0.441775   
    138. A(C  22,C  24,N  86)          106.5173         0.439966   
    139. A(C  22,C  24,H  25)          126.7212         0.399192   
    140. A(H  25,C  24,N  86)          126.7615         0.376517   
    141. A(C  31,C  26,N  79)          109.0135         0.364470   
    142. A(C  27,C  26,N  79)          107.9744         0.362665   
    143. A(C  31,C  26,C  35)          108.9491         0.367634   
    144. A(C  27,C  26,C  35)          109.6753         0.365809   
    145. A(C  35,C  26,N  79)          110.8198         0.366763   
    146. A(C  27,C  26,C  31)          110.4026         0.363524   
    147. A(H  28,C  27,H  30)          109.4584         0.331445   
    148. A(C  26,C  27,H  30)          109.4761         0.345948   
    149. A(C  26,C  27,H  28)          109.4789         0.346331   
    150. A(H  28,C  27,H  29)          109.4826         0.331818   
    151. A(C  26,C  27,H  29)          109.4746         0.346343   
    152. A(H  29,C  27,H  30)          109.4567         0.331457   
    153. A(C  26,C  31,H  33)          109.5043         0.347970   
    154. A(C  26,C  31,H  34)          109.4684         0.347752   
    155. A(H  33,C  31,H  34)          109.4545         0.331492   
    156. A(H  32,C  31,H  34)          109.4253         0.331226   
    157. A(H  32,C  31,H  33)          109.4958         0.331430   
    158. A(C  26,C  31,H  32)          109.4790         0.347685   
    159. A(H  37,C  35,H  38)          109.4718         0.331418   
    160. A(H  36,C  35,H  38)          109.5324         0.331673   
    161. A(C  26,C  35,H  38)          109.4770         0.350091   
    162. A(H  36,C  35,H  37)          109.4237         0.331459   
    163. A(C  26,C  35,H  37)          109.4562         0.349860   
    164. A(C  26,C  35,H  36)          109.4661         0.350134   
    165. A(C  44,C  39,C  48)          108.7971         0.366472   
    166. A(C  40,C  39,C  48)          109.2209         0.369768   
    167. A(C  48,C  39,N  82)          110.0285         0.364974   
    168. A(C  40,C  39,N  82)          110.6125         0.366115   
    169. A(C  40,C  39,C  44)          110.1145         0.367620   
    170. A(C  44,C  39,N  82)          108.0390         0.362862   
    171. A(H  41,C  40,H  43)          109.4332         0.331210   
    172. A(H  42,C  40,H  43)          109.4314         0.331105   
    173. A(C  39,C  40,H  43)          109.4198         0.350060   
    174. A(H  41,C  40,H  42)          109.6030         0.331581   
    175. A(C  39,C  40,H  42)          109.4551         0.350460   
    176. A(C  39,C  40,H  41)          109.4847         0.350573   
    177. A(C  39,C  44,H  46)          109.5122         0.347518   
    178. A(H  46,C  44,H  47)          109.4655         0.331716   
    179. A(C  39,C  44,H  47)          109.4577         0.347518   
    180. A(H  45,C  44,H  46)          109.3883         0.331595   
    181. A(H  45,C  44,H  47)          109.4970         0.331595   
    182. A(C  39,C  44,H  45)          109.5065         0.347389   
    183. A(H  50,C  48,H  51)          109.4101         0.331117   
    184. A(H  49,C  48,H  51)          109.5049         0.331193   
    185. A(C  39,C  48,H  51)          109.5151         0.349185   
    186. A(H  49,C  48,H  50)          109.4449         0.331202   
    187. A(C  39,C  48,H  50)          109.5724         0.349195   
    188. A(C  39,C  48,H  49)          109.3800         0.349277   
    189. A(C  53,C  52,C  57)          110.0207         0.370252   
    190. A(C  57,C  52,N  83)          111.1034         0.370306   
    191. A(C  53,C  52,N  83)          108.1458         0.363591   
    192. A(C  61,C  52,N  83)          108.3958         0.362167   
    193. A(C  57,C  52,C  61)          109.2287         0.368794   
    194. A(C  53,C  52,C  61)          109.9202         0.362115   
    195. A(H  55,C  53,H  56)          109.4758         0.330853   
    196. A(H  54,C  53,H  56)          109.4790         0.331083   
    197. A(C  52,C  53,H  56)          109.5443         0.346603   
    198. A(H  54,C  53,H  55)          109.5031         0.331223   
    199. A(C  52,C  53,H  55)          109.4687         0.346753   
    200. A(C  52,C  53,H  54)          109.3565         0.346997   
    201. A(C  52,C  57,H  60)          109.4943         0.353233   
    202. A(H  58,C  57,H  59)          109.3889         0.331364   
    203. A(C  52,C  57,H  59)          109.5184         0.353340   
    204. A(C  52,C  57,H  58)          109.4699         0.353176   
    205. A(H  59,C  57,H  60)          109.4326         0.331416   
    206. A(H  58,C  57,H  60)          109.5232         0.331266   
    207. A(H  63,C  61,H  64)          109.4746         0.331222   
    208. A(H  62,C  61,H  64)          109.4405         0.331309   
    209. A(C  52,C  61,H  64)          109.4124         0.345308   
    210. A(H  62,C  61,H  63)          109.4675         0.331742   
    211. A(C  52,C  61,H  63)          109.5077         0.345766   
    212. A(C  52,C  61,H  62)          109.5247         0.345859   
    213. A(C  70,C  65,N  86)          109.9221         0.365537   
    214. A(C  70,C  65,C  74)          108.9838         0.368318   
    215. A(C  66,C  65,C  74)          108.0618         0.370178   
    216. A(C  74,C  65,N  86)          108.7350         0.361624   
    217. A(C  66,C  65,N  86)          108.4761         0.367378   
    218. A(C  66,C  65,C  70)          112.5773         0.374214   
    219. A(H  68,C  66,H  69)          109.5390         0.331421   
    220. A(H  67,C  66,H  69)          109.5260         0.331560   
    221. A(C  65,C  66,H  69)          109.4419         0.352892   
    222. A(H  67,C  66,H  68)          109.5073         0.331432   
    223. A(C  65,C  66,H  68)          109.3816         0.352752   
    224. A(C  65,C  66,H  67)          109.4312         0.352904   
    225. A(H  72,C  70,H  73)          109.5418         0.331290   
    226. A(H  71,C  70,H  73)          109.4777         0.330884   
    227. A(C  65,C  70,H  73)          109.4389         0.350914   
    228. A(H  71,C  70,H  72)          109.4196         0.331055   
    229. A(C  65,C  70,H  72)          109.4630         0.351099   
    230. A(C  65,C  70,H  71)          109.4862         0.350660   
    231. A(H  76,C  74,H  77)          109.4965         0.331342   
    232. A(H  75,C  74,H  77)          109.5140         0.331356   
    233. A(C  65,C  74,H  77)          109.5009         0.347360   
    234. A(H  75,C  74,H  76)          109.3918         0.331292   
    235. A(C  65,C  74,H  76)          109.5082         0.347293   
    236. A(C  65,C  74,H  75)          109.4159         0.347308   
    237. A(C   8,Fe 78,C   9)           98.6506         0.484886   
    238. A(C   7,Fe 78,C   9)          108.4535         0.481136   
    239. A(C   6,Fe 78,C   9)          113.1002         0.482084   
    240. A(C   7,Fe 78,C   8)          118.5908         0.485789   
    241. A(C   6,Fe 78,C   8)          119.7890         0.486747   
    242. A(C   6,Fe 78,C   7)           98.5240         0.482979   
    243. A(C  10,N  79,C  26)          120.9099         0.388720   
    244. A(C   6,N  79,C  26)          128.3775         0.394423   
    245. A(C   6,N  79,C  10)          110.5902         0.422353   
    246. A(C   6,N  80,C  12)          110.6592         0.427662   
    247. A(B   0,N  80,C  12)          120.0590         0.383866   
    248. A(B   0,N  80,C   6)          128.5131         0.391031   
    249. A(C   7,N  81,C  14)          110.1339         0.428372   
    250. A(B   0,N  81,C  14)          119.6140         0.386314   
    251. A(B   0,N  81,C   7)          129.3443         0.392096   
    252. A(C  16,N  82,C  39)          122.8159         0.389407   
    253. A(C   7,N  82,C  39)          127.0570         0.390688   
    254. A(C   7,N  82,C  16)          110.0835         0.421727   
    255. A(C  18,N  83,C  52)          121.9222         0.387539   
    256. A(C   8,N  83,C  52)          128.3478         0.389421   
    257. A(C   8,N  83,C  18)          109.7166         0.415560   
    258. A(C   8,N  84,C  20)          109.8970         0.425049   
    259. A(B   3,N  84,C  20)          118.3190         0.387554   
    260. A(B   3,N  84,C   8)          131.3838         0.392630   
    261. A(C   9,N  85,C  22)          110.0022         0.421030   
    262. A(B   3,N  85,C  22)          118.2147         0.385612   
    263. A(B   3,N  85,C   9)          129.4390         0.388642   
    264. A(C  24,N  86,C  65)          123.7565         0.385318   
    265. A(C   9,N  86,C  65)          125.4788         0.388065   
    266. A(C   9,N  86,C  24)          110.6585         0.417326   
    267. D(H  13,C  12,C  10,N  79)   -178.9520         0.040930   
    268. D(N  80,C  12,C  10,H  11)   -178.9028         0.040930   
    269. D(H  13,C  12,C  10,H  11)      1.0709         0.040930   
    270. D(N  80,C  12,C  10,N  79)      1.0744         0.040930   
    271. D(H  17,C  16,C  14,H  15)     -1.0247         0.037729   
    272. D(N  82,C  16,C  14,N  81)     -1.0607         0.037729   
    273. D(H  17,C  16,C  14,N  81)    178.9517         0.037729   
    274. D(N  82,C  16,C  14,H  15)    178.9629         0.037729   
    275. D(N  84,C  20,C  18,H  19)    179.1972         0.041845   
    276. D(H  21,C  20,C  18,N  83)    179.2903         0.041845   
    277. D(H  21,C  20,C  18,H  19)     -0.8274         0.041845   
    278. D(N  84,C  20,C  18,N  83)     -0.6851         0.041845   
    279. D(N  86,C  24,C  22,N  85)     -0.6239         0.041439   
    280. D(H  25,C  24,C  22,H  23)     -0.5728         0.041439   
    281. D(H  25,C  24,C  22,N  85)    179.4293         0.041439   
    282. D(N  86,C  24,C  22,H  23)    179.3740         0.041439   
    283. D(H  28,C  27,C  26,N  79)    -57.0405         0.010872   
    284. D(H  28,C  27,C  26,C  31)     62.0441         0.010872   
    285. D(H  29,C  27,C  26,C  35)     62.0857         0.010872   
    286. D(H  29,C  27,C  26,C  31)    -57.9766         0.010872   
    287. D(H  29,C  27,C  26,N  79)   -177.0612         0.010872   
    288. D(H  28,C  27,C  26,C  35)   -177.8937         0.010872   
    289. D(H  33,C  31,C  26,C  35)    -60.6626         0.011484   
    290. D(H  33,C  31,C  26,N  79)    178.2871         0.011484   
    291. D(H  32,C  31,C  26,C  27)    179.8907         0.011484   
    292. D(H  32,C  31,C  26,C  35)     59.3926         0.011484   
    293. D(H  33,C  31,C  26,C  27)     59.8355         0.011484   
    294. D(H  32,C  31,C  26,N  79)    -61.6577         0.011484   
    295. D(H  36,C  35,C  26,N  79)    -60.5448         0.012314   
    296. D(H  36,C  35,C  26,C  27)     58.5718         0.012314   
    297. D(H  36,C  35,C  26,C  31)    179.5163         0.012314   
    298. D(H  37,C  35,C  26,N  79)    179.5257         0.012314   
    299. D(H  37,C  35,C  26,C  31)     59.5868         0.012314   
    300. D(H  37,C  35,C  26,C  27)    -61.3577         0.012314   
    301. D(H  42,C  40,C  39,N  82)    178.9523         0.012497   
    302. D(H  42,C  40,C  39,C  48)    -59.8061         0.012497   
    303. D(H  42,C  40,C  39,C  44)     59.6062         0.012497   
    304. D(H  41,C  40,C  39,N  82)    -60.8880         0.012497   
    305. D(H  41,C  40,C  39,C  44)    179.7660         0.012497   
    306. D(H  41,C  40,C  39,C  48)     60.3537         0.012497   
    307. D(H  46,C  44,C  39,C  48)     59.9356         0.011313   
    308. D(H  46,C  44,C  39,N  82)    179.3639         0.011313   
    309. D(H  45,C  44,C  39,C  40)     60.2108         0.011313   
    310. D(H  46,C  44,C  39,C  40)    -59.7344         0.011313   
    311. D(H  45,C  44,C  39,C  48)    179.8808         0.011313   
    312. D(H  45,C  44,C  39,N  82)    -60.6908         0.011313   
    313. D(H  50,C  48,C  39,C  40)     64.4657         0.012068   
    314. D(H  49,C  48,C  39,C  44)     64.2152         0.012068   
    315. D(H  50,C  48,C  39,C  44)    -55.7586         0.012068   
    316. D(H  49,C  48,C  39,C  40)   -175.5605         0.012068   
    317. D(H  49,C  48,C  39,N  82)    -53.9648         0.012068   
    318. D(H  50,C  48,C  39,N  82)   -173.9386         0.012068   
    319. D(H  55,C  53,C  52,N  83)    178.4275         0.011175   
    320. D(H  55,C  53,C  52,C  61)    -63.4083         0.011175   
    321. D(H  55,C  53,C  52,C  57)     56.9150         0.011175   
    322. D(H  54,C  53,C  52,N  83)    -61.6052         0.011175   
    323. D(H  54,C  53,C  52,C  61)     56.5590         0.011175   
    324. D(H  54,C  53,C  52,C  57)    176.8823         0.011175   
    325. D(H  59,C  57,C  52,C  61)     58.1797         0.013716   
    326. D(H  59,C  57,C  52,C  53)    -62.5605         0.013716   
    327. D(H  58,C  57,C  52,N  83)    -62.3639         0.013716   
    328. D(H  58,C  57,C  52,C  61)    178.1069         0.013716   
    329. D(H  58,C  57,C  52,C  53)     57.3668         0.013716   
    330. D(H  59,C  57,C  52,N  83)    177.7089         0.013716   
    331. D(H  63,C  61,C  52,N  83)   -179.1447         0.010703   
    332. D(H  63,C  61,C  52,C  57)    -57.9557         0.010703   
    333. D(H  63,C  61,C  52,C  53)     62.8458         0.010703   
    334. D(H  62,C  61,C  52,C  57)     62.0948         0.010703   
    335. D(H  62,C  61,C  52,N  83)    -59.0941         0.010703   
    336. D(H  62,C  61,C  52,C  53)   -177.1037         0.010703   
    337. D(H  68,C  66,C  65,N  86)    170.7558         0.013509   
    338. D(H  68,C  66,C  65,C  74)     53.0349         0.013509   
    339. D(H  68,C  66,C  65,C  70)    -67.3732         0.013509   
    340. D(H  67,C  66,C  65,C  74)    172.9999         0.013509   
    341. D(H  67,C  66,C  65,N  86)    -69.2792         0.013509   
    342. D(H  67,C  66,C  65,C  70)     52.5918         0.013509   
    343. D(H  72,C  70,C  65,N  86)    179.1700         0.012763   
    344. D(H  72,C  70,C  65,C  74)    -61.7542         0.012763   
    345. D(H  72,C  70,C  65,C  66)     58.1220         0.012763   
    346. D(H  71,C  70,C  65,C  74)     58.1868         0.012763   
    347. D(H  71,C  70,C  65,C  66)    178.0630         0.012763   
    348. D(H  71,C  70,C  65,N  86)    -60.8890         0.012763   
    349. D(H  76,C  74,C  65,N  86)   -178.3915         0.011316   
    350. D(H  76,C  74,C  65,C  70)     61.7950         0.011316   
    351. D(H  75,C  74,C  65,C  70)   -178.3135         0.011316   
    352. D(H  75,C  74,C  65,C  66)     59.0544         0.011316   
    353. D(H  76,C  74,C  65,C  66)    -60.8371         0.011316   
    354. D(H  75,C  74,C  65,N  86)    -58.5000         0.011316   
    355. D(C   8,Fe 78,C   9,N  85)      9.1992         0.002264   
    356. D(C   7,Fe 78,C   9,N  86)     41.3991         0.002264   
    357. D(C   7,Fe 78,C   9,N  85)   -114.9303         0.002264   
    358. D(C   6,Fe 78,C   9,N  85)    136.8771         0.002264   
    359. D(C   6,Fe 78,C   9,N  86)    -66.7936         0.002264   
    360. D(C   7,Fe 78,C   8,N  83)    -66.0448         0.002347   
    361. D(C   6,Fe 78,C   8,N  84)   -115.9303         0.002347   
    362. D(C   8,Fe 78,C   7,N  82)    -68.1301         0.002279   
    363. D(C   8,Fe 78,C   7,N  81)    131.9027         0.002279   
    364. D(C   6,Fe 78,C   7,N  82)    161.0406         0.002279   
    365. D(C   6,Fe 78,C   7,N  81)      1.0735         0.002279   
    366. D(C   6,Fe 78,C   8,N  83)     54.3863         0.002347   
    367. D(C   7,Fe 78,C   8,N  84)    123.6386         0.002347   
    368. D(C   9,Fe 78,C   8,N  83)    177.3680         0.002347   
    369. D(C   8,Fe 78,C   6,N  80)   -127.5345         0.002296   
    370. D(C   7,Fe 78,C   6,N  80)      2.5093         0.002296   
    371. D(C   8,Fe 78,C   6,N  79)     64.1488         0.002296   
    372. D(C   7,Fe 78,C   6,N  79)   -165.8074         0.002296   
    373. D(C   9,Fe 78,C   6,N  79)    -51.4831         0.002296   
    374. D(C   9,Fe 78,C   7,N  81)   -116.8467         0.002279   
    375. D(C  10,N  79,C  26,C  31)    -56.1050         0.012890   
    376. D(C  10,N  79,C  26,C  27)     63.8582         0.012890   
    377. D(C   6,N  79,C  26,C  31)    128.3133         0.012890   
    378. D(C   6,N  79,C  26,C  27)   -111.7234         0.012890   
    379. D(C  26,N  79,C  10,C  12)   -177.1577         0.026149   
    380. D(C  26,N  79,C  10,H  11)      2.8194         0.026149   
    381. D(C   6,N  79,C  10,C  12)     -0.8567         0.026149   
    382. D(C   6,N  79,C  10,H  11)    179.1205         0.026149   
    383. D(C  26,N  79,C   6,N  80)    176.2181         0.031252   
    384. D(C   6,N  79,C  26,C  35)      8.4129         0.012890   
    385. D(C  26,N  79,C   6,Fe 78)    -14.3371         0.031252   
    386. D(C  10,N  79,C   6,N  80)      0.2670         0.031252   
    387. D(C  10,N  79,C   6,Fe 78)    169.7118         0.031252   
    388. D(B   0,N  80,C   6,Fe 78)     19.0406         0.034548   
    389. D(C  12,N  80,B   0,H   2)     27.3268         0.008249   
    390. D(C  12,N  80,B   0,H   1)    -90.1559         0.008249   
    391. D(C   6,N  80,B   0,N  81)    -42.4340         0.008249   
    392. D(C   6,N  80,B   0,H   2)   -163.7079         0.008249   
    393. D(C   6,N  80,B   0,H   1)     78.8094         0.008249   
    394. D(C   6,N  80,C  12,H  13)    179.0630         0.027491   
    395. D(C   6,N  80,C  12,C  10)     -0.9634         0.027491   
    396. D(B   0,N  80,C  12,H  13)    -10.1473         0.027491   
    397. D(B   0,N  80,C  12,C  10)    169.8263         0.027491   
    398. D(C  12,N  80,C   6,N  79)      0.4171         0.034548   
    399. D(C  12,N  80,C   6,Fe 78)   -171.1571         0.034548   
    400. D(B   0,N  80,C   6,N  79)   -169.3852         0.034548   
    401. D(C   7,N  81,C  14,C  16)      2.0858         0.028393   
    402. D(C   7,N  81,C  14,H  15)   -177.9377         0.028393   
    403. D(B   0,N  81,C  14,C  16)   -168.0067         0.028393   
    404. D(B   0,N  81,C  14,H  15)     11.9698         0.028393   
    405. D(C  14,N  81,C   7,N  82)     -2.1943         0.034110   
    406. D(C  14,N  81,C   7,Fe 78)    163.4412         0.034110   
    407. D(B   0,N  81,C   7,N  82)    166.6532         0.034110   
    408. D(B   0,N  81,C   7,Fe 78)    -27.7113         0.034110   
    409. D(C  14,N  81,B   0,H   2)    -22.4786         0.008569   
    410. D(C  14,N  81,B   0,H   1)     95.0170         0.008569   
    411. D(C   7,N  81,B   0,N  80)     48.3737         0.008569   
    412. D(C   7,N  81,B   0,H   2)    169.5786         0.008569   
    413. D(C   7,N  81,B   0,H   1)    -72.9258         0.008569   
    414. D(C  16,N  82,C  39,C  44)   -133.8951         0.012449   
    415. D(C   7,N  82,C  39,C  48)    162.1046         0.012449   
    416. D(C   7,N  82,C  39,C  44)     43.4579         0.012449   
    417. D(C   7,N  82,C  39,C  40)    -77.1330         0.012449   
    418. D(C  39,N  82,C  16,H  17)     -2.5530         0.027761   
    419. D(C  39,N  82,C  16,C  14)    177.4594         0.027761   
    420. D(C   7,N  82,C  16,H  17)    179.6959         0.027761   
    421. D(C   7,N  82,C  16,C  14)     -0.2916         0.027761   
    422. D(C  39,N  82,C   7,N  81)   -176.1039         0.028900   
    423. D(C  39,N  82,C   7,Fe 78)     22.3698         0.028900   
    424. D(C  16,N  82,C  39,C  40)    105.5140         0.012449   
    425. D(C  16,N  82,C   7,N  81)      1.5277         0.028900   
    426. D(C  16,N  82,C   7,Fe 78)   -159.9986         0.028900   
    427. D(C  18,N  83,C  52,C  57)   -178.4999         0.012897   
    428. D(C  18,N  83,C  52,C  53)     60.6588         0.012897   
    429. D(C   8,N  83,C  52,C  57)      2.9729         0.012897   
    430. D(C   8,N  83,C  52,C  53)   -117.8684         0.012897   
    431. D(C  52,N  83,C  18,C  20)   -179.1140         0.025185   
    432. D(C  52,N  83,C  18,H  19)      1.0037         0.025185   
    433. D(C   8,N  83,C  18,C  20)     -0.3410         0.025185   
    434. D(C   8,N  83,C  18,H  19)    179.7767         0.025185   
    435. D(C  52,N  83,C   8,N  84)    179.8943         0.026714   
    436. D(C   8,N  83,C  52,C  61)    122.9980         0.012897   
    437. D(C  52,N  83,C   8,Fe 78)      8.6312         0.026714   
    438. D(C  18,N  83,C   8,N  84)      1.2223         0.026714   
    439. D(C  18,N  83,C   8,Fe 78)   -170.0409         0.026714   
    440. D(C   8,N  84,C  20,H  21)   -178.4737         0.027414   
    441. D(C   8,N  84,C  20,C  18)      1.5017         0.027414   
    442. D(B   3,N  84,C  20,H  21)     -4.9143         0.027414   
    443. D(B   3,N  84,C  20,C  18)    175.0612         0.027414   
    444. D(C  20,N  84,C   8,N  83)     -1.6454         0.032169   
    445. D(C  20,N  84,C   8,Fe 78)    171.2954         0.032169   
    446. D(B   3,N  84,C   8,N  83)   -174.0827         0.032169   
    447. D(B   3,N  84,C   8,Fe 78)     -1.1419         0.032169   
    448. D(C  20,N  84,B   3,H   5)    -70.8731         0.009123   
    449. D(C  20,N  84,B   3,H   4)     45.9658         0.009123   
    450. D(C   8,N  84,B   3,N  85)    -20.5261         0.009123   
    451. D(C   8,N  84,B   3,H   5)    101.0456         0.009123   
    452. D(C   8,N  84,B   3,H   4)   -142.1155         0.009123   
    453. D(C   9,N  85,C  22,H  23)   -178.1447         0.026734   
    454. D(B   3,N  85,C  22,C  24)   -162.4049         0.026734   
    455. D(B   3,N  85,C  22,H  23)     17.5972         0.026734   
    456. D(C  22,N  85,C   9,N  86)     -2.2443         0.029427   
    457. D(C  22,N  85,C   9,Fe 78)    161.3787         0.029427   
    458. D(B   3,N  85,C   9,N  86)    159.7233         0.029427   
    459. D(B   3,N  85,C   9,Fe 78)    -36.6536         0.029427   
    460. D(C  22,N  85,B   3,H   5)     83.3033         0.008846   
    461. D(C  22,N  85,B   3,H   4)    -33.5066         0.008846   
    462. D(C   9,N  85,B   3,N  84)     44.1766         0.008846   
    463. D(C   9,N  85,B   3,H   5)    -77.4217         0.008846   
    464. D(C   9,N  85,C  22,C  24)      1.8532         0.026734   
    465. D(C   9,N  85,B   3,H   4)    165.7684         0.008846   
    466. D(C  24,N  86,C  65,C  70)    107.8468         0.011976   
    467. D(C  24,N  86,C  65,C  66)   -128.6722         0.011976   
    468. D(C   9,N  86,C  65,C  74)    164.5186         0.011976   
    469. D(C   9,N  86,C  65,C  70)    -76.2532         0.011976   
    470. D(C   9,N  86,C  65,C  66)     47.2278         0.011976   
    471. D(C  65,N  86,C  24,H  25)     -4.4243         0.025475   
    472. D(C  65,N  86,C  24,C  22)    175.6290         0.025475   
    473. D(C   9,N  86,C  24,H  25)    179.1431         0.025475   
    474. D(C   9,N  86,C  24,C  22)     -0.8036         0.025475   
    475. D(C  65,N  86,C   9,N  85)   -174.4856         0.027783   
    476. D(C  65,N  86,C   9,Fe 78)     27.4779         0.027783   
    477. D(C  24,N  86,C   9,N  85)      1.8721         0.027783   
    478. D(C  24,N  86,C   9,Fe 78)   -156.1644         0.027783   
    -----------------------------------------------------------------

Number of atoms                         .... 87
Number of degrees of freedom            .... 478


         *************************************************************
         *                GEOMETRY OPTIMIZATION CYCLE   1            *
         *************************************************************
---------------------------------
CARTESIAN COORDINATES (ANGSTROEM)
---------------------------------
  B     13.043300   11.513100   15.415500
  H     13.398400   12.289700   15.916100
  H     12.630200   11.852600   14.583000
  B     14.928900    6.452600   19.746100
  H     14.710800    5.972600   20.584500
  H     15.748800    6.042900   19.369800
  C     14.862800    9.659100   15.825800
  C     12.088400   10.046100   17.385100
  C     14.930900    9.088300   19.430800
  C     13.489000    6.912400   17.571700
  C     15.987000    9.940600   13.888600
  H     16.650900    9.856100   13.214000
  C     14.903400   10.724300   13.852600
  H     14.646800   11.292200   13.136900
  C     10.625000   11.128000   16.090300
  H     10.269900   11.631600   15.367000
  C      9.922500   10.600500   17.112600
  H      8.986100   10.671800   17.254500
  C     16.265700    9.526300   21.208300
  H     16.788700    9.991500   21.849400
  C     16.056300    8.208800   21.156300
  H     16.417500    7.566400   21.754300
  C     13.082300    5.042000   18.760500
  H     13.091300    4.414700   19.473900
  C     12.411800    4.910900   17.612100
  H     11.865000    4.176500   17.353200
  C     17.052700    8.358200   15.505200
  C     18.334300    9.188700   15.645300
  H     18.517900    9.650400   14.801900
  H     19.083600    8.598100   15.864000
  H     18.219300    9.849200   16.361000
  C     17.226300    7.289500   14.430300
  H     16.400800    6.766100   14.353300
  H     17.967000    6.697500   14.674500
  H     17.421300    7.719000   13.571100
  C     16.735700    7.682500   16.824400
  H     16.630300    8.361600   17.521800
  H     17.468700    7.078000   17.066100
  H     15.905400    7.170500   16.737800
  C     10.437800    9.262200   19.186600
  C     10.417500    7.759200   19.008800
  H      9.759900    7.520200   18.323800
  H     10.177300    7.333400   19.857800
  H     11.306700    7.451600   18.729300
  C     11.455900    9.650900   20.257400
  H     12.347800    9.350500   19.985200
  H     11.215300    9.227100   21.106600
  H     11.458200   10.623800   20.367400
  C      9.062200    9.732300   19.625700
  H      9.052800   10.711300   19.673000
  H      8.854600    9.360800   20.509100
  H      8.390500    9.429300   18.978700
  C     15.586500   11.549000   19.872900
  C     17.033400   11.965400   19.603200
  H     17.577000   11.784100   20.397900
  H     17.064700   12.923800   19.396700
  H     17.385600   11.455000   18.842300
  C     14.725200   11.890200   18.692500
  H     15.079400   11.449900   17.891400
  H     14.724900   12.860400   18.557100
  H     13.808900   11.583600   18.856700
  C     15.054700   12.279200   21.115000
  H     14.145100   11.974300   21.309300
  H     15.046900   13.244200   20.948700
  H     15.635400   12.084000   21.881700
  C     12.179500    6.270500   15.470700
  C     13.347200    6.673500   14.615100
  H     13.643400    7.571600   14.870100
  H     13.075700    6.673500   13.673300
  H     14.081000    6.037700   14.744500
  C     11.072800    7.298700   15.463200
  H     10.323100    6.976900   16.009300
  H     10.767500    7.443000   14.543500
  H     11.408600    8.142300   15.833500
  C     11.633200    4.948400   14.934300
  H     12.339200    4.269100   14.961600
  H     11.333600    5.069400   14.008900
  H     10.878100    4.658100   15.487200
  Fe    13.911400    8.989600   17.591100
  N     15.951400    9.276800   15.102800
  N     14.229700   10.556800   15.042800
  N     11.947700   10.808800   16.279400
  N     10.826600    9.937600   17.911500
  N     15.568200   10.084700   20.144700
  N     15.228200    7.938000   20.088400
  N     13.761100    6.244900   18.735800
  N     12.668700    6.056400   16.872300

----------------------------
CARTESIAN COORDINATES (A.U.)
----------------------------
  NO LB      ZA    FRAG     MASS         X           Y           Z
   0 B     5.0000    0    10.810   24.648265   21.756606   29.131073
   1 H     1.0000    0     1.008   25.319307   23.224167   30.077070
   2 H     1.0000    0     1.008   23.867619   22.398168   27.557876
   3 B     5.0000    0    10.810   28.211532   12.193647   37.314721
   4 H     1.0000    0     1.008   27.799383   11.286578   38.899068
   5 H     1.0000    0     1.008   29.760919   11.419426   36.603617
   6 C     6.0000    0    12.011   28.086622   18.253054   29.906428
   7 C     6.0000    0    12.011   22.843765   18.984378   32.853078
   8 C     6.0000    0    12.011   28.215312   17.174398   36.718891
   9 C     6.0000    0    12.011   25.490516   13.062543   33.205701
  10 C     6.0000    0    12.011   30.211052   18.785012   26.245650
  11 H     1.0000    0     1.008   31.465641   18.625330   24.970841
  12 C     6.0000    0    12.011   28.163344   20.265990   26.177620
  13 H     1.0000    0     1.008   27.678441   21.339165   24.825143
  14 C     6.0000    0    12.011   20.078340   21.028872   30.406260
  15 H     1.0000    0     1.008   19.407298   21.980538   29.039421
  16 C     6.0000    0    12.011   18.750808   20.032042   32.338127
  17 H     1.0000    0     1.008   16.981268   20.166779   32.606280
  18 C     6.0000    0    12.011   30.737718   18.002098   40.077879
  19 H     1.0000    0     1.008   31.726045   18.881199   41.289382
  20 C     6.0000    0    12.011   30.342010   15.512384   39.979613
  21 H     1.0000    0     1.008   31.024579   14.298424   41.109669
  22 C     6.0000    0    12.011   24.721964    9.527999   35.452207
  23 H     1.0000    0     1.008   24.738972    8.342574   36.800338
  24 C     6.0000    0    12.011   23.454903    9.280256   33.282046
  25 H     1.0000    0     1.008   22.421601    7.892441   32.792796
  26 C     6.0000    0    12.011   32.224933   15.794709   29.300582
  27 C     6.0000    0    12.011   34.646806   17.364127   29.565332
  28 H     1.0000    0     1.008   34.993760   18.236613   27.971537
  29 H     1.0000    0     1.008   36.062778   16.248054   29.978615
  30 H     1.0000    0     1.008   34.429487   18.612291   30.917809
  31 C     6.0000    0    12.011   32.552989   13.775159   27.269315
  32 H     1.0000    0     1.008   30.993020   12.786076   27.123806
  33 H     1.0000    0     1.008   33.952709   12.656441   27.730786
  34 H     1.0000    0     1.008   32.921486   14.586796   25.645662
  35 C     6.0000    0    12.011   31.625890   14.517821   31.793508
  36 H     1.0000    0     1.008   31.426713   15.801134   33.111403
  37 H     1.0000    0     1.008   33.011059   13.375482   32.250255
  38 H     1.0000    0     1.008   30.056850   13.550281   31.629858
  39 C     6.0000    0    12.011   19.724583   17.503021   36.257419
  40 C     6.0000    0    12.011   19.686222   14.662763   35.921426
  41 H     1.0000    0     1.008   18.443538   14.211118   34.626964
  42 H     1.0000    0     1.008   19.232310   13.858118   37.525804
  43 H     1.0000    0     1.008   21.366566   14.081483   35.393248
  44 C     6.0000    0    12.011   21.648514   18.237558   38.280938
  45 H     1.0000    0     1.008   23.333960   17.669884   37.766555
  46 H     1.0000    0     1.008   21.193846   17.436692   39.885694
  47 H     1.0000    0     1.008   21.652860   20.076073   38.488808
  48 C     6.0000    0    12.011   17.125076   18.391382   37.087198
  49 H     1.0000    0     1.008   17.107313   20.241424   37.176582
  50 H     1.0000    0     1.008   16.732769   17.689348   38.756582
  51 H     1.0000    0     1.008   15.855747   17.818795   35.864545
  52 C     6.0000    0    12.011   29.454216   21.824447   37.554338
  53 C     6.0000    0    12.011   32.188461   22.611329   37.044679
  54 H     1.0000    0     1.008   33.215716   22.268722   38.546445
  55 H     1.0000    0     1.008   32.247610   24.422443   36.654451
  56 H     1.0000    0     1.008   32.854023   21.646813   35.606787
  57 C     6.0000    0    12.011   27.826595   22.469222   35.323706
  58 H     1.0000    0     1.008   28.495936   21.637175   33.809846
  59 H     1.0000    0     1.008   27.826028   24.302634   35.067837
  60 H     1.0000    0     1.008   26.095039   21.889832   35.633999
  61 C     6.0000    0    12.011   28.449260   23.204325   39.901567
  62 H     1.0000    0     1.008   26.730365   22.628148   40.268741
  63 H     1.0000    0     1.008   28.434520   25.027911   39.587306
  64 H     1.0000    0     1.008   29.546624   22.835451   41.350420
  65 C     6.0000    0    12.011   23.015919   11.849528   29.235386
  66 C     6.0000    0    12.011   25.222553   12.611087   27.618536
  67 H     1.0000    0     1.008   25.782290   14.308250   28.100417
  68 H     1.0000    0     1.008   24.709492   12.611087   25.838792
  69 H     1.0000    0     1.008   26.609234   11.409599   27.863067
  70 C     6.0000    0    12.011   20.924560   13.792544   29.221213
  71 H     1.0000    0     1.008   19.507832   13.184430   30.253193
  72 H     1.0000    0     1.008   20.347626   14.065232   27.483232
  73 H     1.0000    0     1.008   21.559130   15.386717   29.920979
  74 C     6.0000    0    12.011   21.983562    9.351121   28.221737
  75 H     1.0000    0     1.008   23.317709    8.067430   28.273327
  76 H     1.0000    0     1.008   21.417400    9.579778   26.472984
  77 H     1.0000    0     1.008   20.556630    8.802533   29.266567
  78 Fe   26.0000    0    55.850   26.288736   16.987882   33.242361
  79 N     7.0000    0    14.007   30.143777   17.530611   28.540156
  80 N     7.0000    0    14.007   26.890236   19.949461   28.426772
  81 N     7.0000    0    14.007   22.577881   20.425672   30.763608
  82 N     7.0000    0    14.007   20.459309   18.779342   33.847830
  83 N     7.0000    0    14.007   29.419634   19.057321   38.067966
  84 N     7.0000    0    14.007   28.777128   15.000646   37.961574
  85 N     7.0000    0    14.007   26.004710   11.801151   35.405531
  86 N     7.0000    0    14.007   23.940373   11.444937   31.884026

--------------------------------
INTERNAL COORDINATES (ANGSTROEM)
--------------------------------
 B      0   0   0     0.000000000000     0.00000000     0.00000000
 H      1   0   0     0.989850458403     0.00000000     0.00000000
 H      1   2   0     0.989428173239   107.82408295     0.00000000
 B      1   2   3     6.922300482499    99.17456065   179.30187530
 H      4   1   2     0.990394956570   145.47804924    79.67839632
 H      4   1   2     0.990803608189   106.86389025   259.42543273
 C      1   2   3     2.629874966610   103.06160795   142.04285008
 C      1   2   3     2.635004206828   100.88132841   219.01051908
 C      4   1   2     2.654492904492    36.87265802     2.79378997
 C      4   1   2     2.648158494124    37.93369933   171.26752081
 C      7   1   2     2.257390469104    97.05106695   262.28611305
 H     11   7   1     0.950257133622   161.09634948   173.05333287
 C     11   7   1     1.337785726490    72.10708455   354.36638737
 H     13  11   7     0.948989178020   126.14857531   180.53971657
 C      8   1   2     2.233507154678    62.25326455   105.76156481
 H     15   8   1     0.950195695633   160.53953208    10.76699098
 C     15   8   1     1.347909414612    73.27575406   187.82669938
 H     17  15   8     0.949770635469   126.71072096   180.18807783
 C      9   4   1     2.265621612273    95.69371813   189.23624941
 H     19   9   4     0.949183464879   161.67309630   177.75047239
 C     19   9   4     1.335050040261    71.71469538   357.97633476
 H     21  19   9     0.949077025325   125.71369296   179.08415697
 C     10   4   1     2.253230234574    61.36699108   199.12701063
 H     23  10   4     0.950013605166   160.49308525    13.73694511
 C     23  10   4     1.336255970988    73.65520934   191.05368180
 H     25  23  10     0.951505549117   126.72116581   180.53192656
 C     11   7   1     2.500620285049    65.07349803   173.14607286
 C     27  11   7     1.533576479997    94.15869836   241.18894795
 H     28  27  11     0.978876606115   109.47888102   328.26780475
 H     28  27  11     0.978819973233   109.47463570   208.24712914
 H     28  27  11     0.980669026736   109.47608999    88.25980662
 C     27  11   7     1.525669249870    92.07945562   130.55447106
 H     32  27  11     0.980472748219   109.47903613   275.10775453
 H     32  27  11     0.979149697442   109.50427628   155.05256134
 H     32  27  11     0.980163195596   109.46842258    35.05455796
 C     27  11   7     1.515700541004   139.08130411     8.00739285
 H     36  27  11     0.979108129881   109.46613346   296.55979339
 H     36  27  11     0.980371429612   109.45624423   176.63024814
 H     36  27  11     0.979306719062   109.47704288    56.63515563
 C     17  15   8     2.521518784384   136.47106273     2.01265171
 C     40  17  15     1.513616176578   115.31973027   270.32862511
 H     41  40  17     0.979175040532   109.48465207   328.39285682
 H     41  40  17     0.979695197498   109.45511938   208.23306932
 H     41  40  17     0.981536881630   109.41984278    88.32308017
 C     40  17  15     1.527818032359   125.28392090    53.53969187
 H     45  40  17     0.979703327544   109.50654757   275.41563938
 H     45  40  17     0.979099300378   109.51221378   155.47039982
 H     45  40  17     0.979101475844   109.45766160    35.46054671
 C     40  17  15     1.518577683229    83.59307445   162.06675644
 H     49  40  17     0.980187048476   109.37997955   299.06045851
 H     49  40  17     0.980563904088   109.57243280   179.08670370
 H     49  40  17     0.980611487797   109.51506775    59.07258338
 C     19   9   4     2.517125561032    65.17506185   177.64132171
 C     53  19   9     1.529590356926    93.27084166   236.84549552
 H     54  53  19     0.979754428416   109.35649869   322.53524676
 H     54  53  19     0.980893725130   109.46866560   202.56796176
 H     54  53  19     0.981591467974   109.54428482    82.51916723
 C     53  19   9     1.500533001970   139.02048248     2.91031279
 H     58  53  19     0.980348376854   109.46986792   296.56474788
 H     58  53  19     0.979602618412   109.51841811   176.63748313
 H     58  53  19     0.980087184897   109.49427489    56.64179095
 C     53  19   9     1.535843641130    92.66089560   126.70700206
 H     62  53  19     0.978820034531   109.52469092   277.34666006
 H     62  53  19     0.979255599933   109.50767103   157.29610545
 H     62  53  19     0.981399215406   109.41242739    37.30572077
 C     25  23  10     2.547168900957   135.71725307     3.54210555
 C     66  25  23     1.502658860154   123.43344056    56.53097693
 H     67  66  25     0.979460591346   109.43120097   265.65060489
 H     67  66  25     0.980152789110   109.38164355   145.68561410
 H     67  66  25     0.979514389889   109.44194547    25.67528833
 C     66  25  23     1.510641049356   115.74014759   270.53007905
 H     71  66  25     0.981748715303   109.48621240   327.70629013
 H     71  66  25     0.979733979200   109.46302498   207.76533699
 H     71  66  25     0.980583851590   109.43890967    87.70366410
 C     66  25  23     1.527781744884    82.29160503   163.12237708
 H     75  66  25     0.980117227682   109.41587049   296.32518021
 H     75  66  25     0.980186880141   109.50821086   176.43370955
 H     75  66  25     0.979871680375   109.50090525    56.36183264
 Fe     9   4   1     2.105615831532    93.26026156     1.95026780
 N      7   1   2     1.361591807408   131.93138016   265.96526703
 N      7   1   2     1.348988472894    27.82340449   252.10853776
 N      8   1   2     1.350585158367    27.30335778   113.01211769
 N      8   1   2     1.371498614655   131.63167722    95.67618105
 N      9   4   1     1.381527220144   130.92671971   190.51934762
 N      9   4   1     1.357945190352    26.04531783   182.94769373
 N     10   4   1     1.369205415560    27.02588910   210.85021730
 N     10   4   1     1.376513149229   129.29026620   185.13668198

---------------------------
INTERNAL COORDINATES (A.U.)
---------------------------
 B      0   0   0     0.000000000000     0.00000000     0.00000000
 H      1   0   0     1.870546279917     0.00000000     0.00000000
 H      1   2   0     1.869748276609   107.82408295     0.00000000
 B      1   2   3    13.081252128633    99.17456065   179.30187530
 H      4   1   2     1.871575232335   145.47804924    79.67839632
 H      4   1   2     1.872347471978   106.86389025   259.42543273
 C      1   2   3     4.969743453347   103.06160795   142.04285008
 C      1   2   3     4.979436312635   100.88132841   219.01051908
 C      4   1   2     5.016264613928    36.87265802     2.79378997
 C      4   1   2     5.004294313111    37.93369933   171.26752081
 C      7   1   2     4.265849763930    97.05106695   262.28611305
 H     11   7   1     1.795725739351   161.09634948   173.05333287
 C     11   7   1     2.528048648935    72.10708455   354.36638737
 H     13  11   7     1.793329650514   126.14857531   180.53971657
 C      8   1   2     4.220716840496    62.25326455   105.76156481
 H     15   8   1     1.795609638378   160.53953208    10.76699098
 C     15   8   1     2.547179646951    73.27575406   187.82669938
 H     17  15   8     1.794806391078   126.71072096   180.18807783
 C      9   4   1     4.281404370290    95.69371813   189.23624941
 H     19   9   4     1.793696799468   161.67309630   177.75047239
 C     19   9   4     2.522878951173    71.71469538   357.97633476
 H     21  19   9     1.793495657861   125.71369296   179.08415697
 C     10   4   1     4.257988060017    61.36699108   199.12701063
 H     23  10   4     1.795265537262   160.49308525    13.73694511
 C     23  10   4     2.525157829984    73.65520934   191.05368180
 H     25  23  10     1.798084902737   126.72116581   180.53192656
 C     11   7   1     4.725487503671    65.07349803   173.14607286
 C     27  11   7     2.898039552617    94.15869836   241.18894795
 H     28  27  11     1.849808704460   109.47888102   328.26780475
 H     28  27  11     1.849701683823   109.47463570   208.24712914
 H     28  27  11     1.853195888551   109.47608999    88.25980662
 C     27  11   7     2.883097053200    92.07945562   130.55447106
 H     32  27  11     1.852824975907   109.47903613   275.10775453
 H     32  27  11     1.850324772277   109.50427628   155.05256134
 H     32  27  11     1.852240006225   109.46842258    35.05455796
 C     27  11   7     2.864258923534   139.08130411     8.00739285
 H     36  27  11     1.850246220972   109.46613346   296.55979339
 H     36  27  11     1.852633511488   109.45624423   176.63024814
 H     36  27  11     1.850621500136   109.47704288    56.63515563
 C     17  15   8     4.764979944023   136.47106273     2.01265171
 C     40  17  15     2.860320045606   115.31973027   270.32862511
 H     41  40  17     1.850372663776   109.48465207   328.39285682
 H     41  40  17     1.851355617988   109.45511938   208.23306932
 H     41  40  17     1.854835896624   109.41984278    88.32308017
 C     40  17  15     2.887157663624   125.28392090    53.53969187
 H     45  40  17     1.851370981549   109.50654757   275.41563938
 H     45  40  17     1.850229535628   109.51221378   155.47039982
 H     45  40  17     1.850233646663   109.45766160    35.46054671
 C     40  17  15     2.869695934387    83.59307445   162.06675644
 H     49  40  17     1.852285081636   109.37997955   299.06045851
 H     49  40  17     1.852997235535   109.57243280   179.08670370
 H     49  40  17     1.853087155714   109.51506775    59.07258338
 C     19   9   4     4.756677955043    65.17506185   177.64132171
 C     53  19   9     2.890506871676    93.27084166   236.84549552
 H     54  53  19     1.851467548202   109.35649869   322.53524676
 H     54  53  19     1.853620506978   109.46866560   202.56796176
 H     54  53  19     1.854939049865   109.54428482    82.51916723
 C     53  19   9     2.835596428633   139.02048248     2.91031279
 H     58  53  19     1.852589948088   109.46986792   296.56474788
 H     58  53  19     1.851180668871   109.51841811   176.63748313
 H     58  53  19     1.852096366822   109.49427489    56.64179095
 C     53  19   9     2.902323866260    92.66089560   126.70700206
 H     62  53  19     1.849701799660   109.52469092   277.34666006
 H     62  53  19     1.850524898982   109.50767103   157.29610545
 H     62  53  19     1.854575745163   109.41242739    37.30572077
 C     25  23  10     4.813451639649   135.71725307     3.54210555
 C     66  25  23     2.839613718402   123.43344056    56.53097693
 H     67  66  25     1.850912276613   109.43120097   265.65060489
 H     67  66  25     1.852220340817   109.38164355   145.68561410
 H     67  66  25     1.851013941126   109.44194547    25.67528833
 C     66  25  23     2.854697869943   115.74014759   270.53007905
 H     71  66  25     1.855236204253   109.48621240   327.70629013
 H     71  66  25     1.851428904786   109.46302498   207.76533699
 H     71  66  25     1.853034930852   109.43890967    87.70366410
 C     66  25  23     2.887089090235    82.29160503   163.12237708
 H     75  66  25     1.852153139458   109.41587049   296.32518021
 H     75  66  25     1.852284763529   109.50821086   176.43370955
 H     75  66  25     1.851689122293   109.50090525    56.36183264
 Fe     9   4   1     3.979037264845    93.26026156     1.95026780
 N      7   1   2     2.573035622192   131.93138016   265.96526703
 N      7   1   2     2.549218771586    27.82340449   252.10853776
 N      8   1   2     2.552236069851    27.30335778   113.01211769
 N      8   1   2     2.591756774750   131.63167722    95.67618105
 N      9   4   1     2.610708092631   130.92671971   190.51934762
 N      9   4   1     2.566144514641    26.04531783   182.94769373
 N     10   4   1     2.587423256491    27.02588910   210.85021730
 N     10   4   1     2.601232871784   129.29026620   185.13668198

---------------------
BASIS SET INFORMATION
---------------------
There are 5 groups of distinct atoms

 Group   1 Type B   : 11s6p2d1f contracted to 5s3p2d1f pattern {62111/411/11/1}
 Group   2 Type H   : 5s1p contracted to 3s1p pattern {311/1}
 Group   3 Type C   : 11s6p2d1f contracted to 5s3p2d1f pattern {62111/411/11/1}
 Group   4 Type Fe  : 17s11p7d1f contracted to 6s4p4d1f pattern {842111/6311/4111/1}
 Group   5 Type N   : 11s6p2d1f contracted to 5s3p2d1f pattern {62111/411/11/1}

Atom   0B    basis set group =>   1
Atom   1H    basis set group =>   2
Atom   2H    basis set group =>   2
Atom   3B    basis set group =>   1
Atom   4H    basis set group =>   2
Atom   5H    basis set group =>   2
Atom   6C    basis set group =>   3
Atom   7C    basis set group =>   3
Atom   8C    basis set group =>   3
Atom   9C    basis set group =>   3
Atom  10C    basis set group =>   3
Atom  11H    basis set group =>   2
Atom  12C    basis set group =>   3
Atom  13H    basis set group =>   2
Atom  14C    basis set group =>   3
Atom  15H    basis set group =>   2
Atom  16C    basis set group =>   3
Atom  17H    basis set group =>   2
Atom  18C    basis set group =>   3
Atom  19H    basis set group =>   2
Atom  20C    basis set group =>   3
Atom  21H    basis set group =>   2
Atom  22C    basis set group =>   3
Atom  23H    basis set group =>   2
Atom  24C    basis set group =>   3
Atom  25H    basis set group =>   2
Atom  26C    basis set group =>   3
Atom  27C    basis set group =>   3
Atom  28H    basis set group =>   2
Atom  29H    basis set group =>   2
Atom  30H    basis set group =>   2
Atom  31C    basis set group =>   3
Atom  32H    basis set group =>   2
Atom  33H    basis set group =>   2
Atom  34H    basis set group =>   2
Atom  35C    basis set group =>   3
Atom  36H    basis set group =>   2
Atom  37H    basis set group =>   2
Atom  38H    basis set group =>   2
Atom  39C    basis set group =>   3
Atom  40C    basis set group =>   3
Atom  41H    basis set group =>   2
Atom  42H    basis set group =>   2
Atom  43H    basis set group =>   2
Atom  44C    basis set group =>   3
Atom  45H    basis set group =>   2
Atom  46H    basis set group =>   2
Atom  47H    basis set group =>   2
Atom  48C    basis set group =>   3
Atom  49H    basis set group =>   2
Atom  50H    basis set group =>   2
Atom  51H    basis set group =>   2
Atom  52C    basis set group =>   3
Atom  53C    basis set group =>   3
Atom  54H    basis set group =>   2
Atom  55H    basis set group =>   2
Atom  56H    basis set group =>   2
Atom  57C    basis set group =>   3
Atom  58H    basis set group =>   2
Atom  59H    basis set group =>   2
Atom  60H    basis set group =>   2
Atom  61C    basis set group =>   3
Atom  62H    basis set group =>   2
Atom  63H    basis set group =>   2
Atom  64H    basis set group =>   2
Atom  65C    basis set group =>   3
Atom  66C    basis set group =>   3
Atom  67H    basis set group =>   2
Atom  68H    basis set group =>   2
Atom  69H    basis set group =>   2
Atom  70C    basis set group =>   3
Atom  71H    basis set group =>   2
Atom  72H    basis set group =>   2
Atom  73H    basis set group =>   2
Atom  74C    basis set group =>   3
Atom  75H    basis set group =>   2
Atom  76H    basis set group =>   2
Atom  77H    basis set group =>   2
Atom  78Fe   basis set group =>   4
Atom  79N    basis set group =>   5
Atom  80N    basis set group =>   5
Atom  81N    basis set group =>   5
Atom  82N    basis set group =>   5
Atom  83N    basis set group =>   5
Atom  84N    basis set group =>   5
Atom  85N    basis set group =>   5
Atom  86N    basis set group =>   5
---------------------------------
AUXILIARY/J BASIS SET INFORMATION
---------------------------------
There are 5 groups of distinct atoms

 Group   1 Type B   : 12s5p4d2f1g contracted to 6s4p3d1f1g pattern {711111/2111/211/2/1}
 Group   2 Type H   : 5s2p1d contracted to 3s1p1d pattern {311/2/1}
 Group   3 Type C   : 12s5p4d2f1g contracted to 6s4p3d1f1g pattern {711111/2111/211/2/1}
 Group   4 Type Fe  : 19s5p5d3f3g contracted to 8s5p5d2f3g pattern {121111111/11111/11111/21/111}
 Group   5 Type N   : 12s5p4d2f1g contracted to 6s4p3d1f1g pattern {711111/2111/211/2/1}

Atom   0B    basis set group =>   1
Atom   1H    basis set group =>   2
Atom   2H    basis set group =>   2
Atom   3B    basis set group =>   1
Atom   4H    basis set group =>   2
Atom   5H    basis set group =>   2
Atom   6C    basis set group =>   3
Atom   7C    basis set group =>   3
Atom   8C    basis set group =>   3
Atom   9C    basis set group =>   3
Atom  10C    basis set group =>   3
Atom  11H    basis set group =>   2
Atom  12C    basis set group =>   3
Atom  13H    basis set group =>   2
Atom  14C    basis set group =>   3
Atom  15H    basis set group =>   2
Atom  16C    basis set group =>   3
Atom  17H    basis set group =>   2
Atom  18C    basis set group =>   3
Atom  19H    basis set group =>   2
Atom  20C    basis set group =>   3
Atom  21H    basis set group =>   2
Atom  22C    basis set group =>   3
Atom  23H    basis set group =>   2
Atom  24C    basis set group =>   3
Atom  25H    basis set group =>   2
Atom  26C    basis set group =>   3
Atom  27C    basis set group =>   3
Atom  28H    basis set group =>   2
Atom  29H    basis set group =>   2
Atom  30H    basis set group =>   2
Atom  31C    basis set group =>   3
Atom  32H    basis set group =>   2
Atom  33H    basis set group =>   2
Atom  34H    basis set group =>   2
Atom  35C    basis set group =>   3
Atom  36H    basis set group =>   2
Atom  37H    basis set group =>   2
Atom  38H    basis set group =>   2
Atom  39C    basis set group =>   3
Atom  40C    basis set group =>   3
Atom  41H    basis set group =>   2
Atom  42H    basis set group =>   2
Atom  43H    basis set group =>   2
Atom  44C    basis set group =>   3
Atom  45H    basis set group =>   2
Atom  46H    basis set group =>   2
Atom  47H    basis set group =>   2
Atom  48C    basis set group =>   3
Atom  49H    basis set group =>   2
Atom  50H    basis set group =>   2
Atom  51H    basis set group =>   2
Atom  52C    basis set group =>   3
Atom  53C    basis set group =>   3
Atom  54H    basis set group =>   2
Atom  55H    basis set group =>   2
Atom  56H    basis set group =>   2
Atom  57C    basis set group =>   3
Atom  58H    basis set group =>   2
Atom  59H    basis set group =>   2
Atom  60H    basis set group =>   2
Atom  61C    basis set group =>   3
Atom  62H    basis set group =>   2
Atom  63H    basis set group =>   2
Atom  64H    basis set group =>   2
Atom  65C    basis set group =>   3
Atom  66C    basis set group =>   3
Atom  67H    basis set group =>   2
Atom  68H    basis set group =>   2
Atom  69H    basis set group =>   2
Atom  70C    basis set group =>   3
Atom  71H    basis set group =>   2
Atom  72H    basis set group =>   2
Atom  73H    basis set group =>   2
Atom  74C    basis set group =>   3
Atom  75H    basis set group =>   2
Atom  76H    basis set group =>   2
Atom  77H    basis set group =>   2
Atom  78Fe   basis set group =>   4
Atom  79N    basis set group =>   5
Atom  80N    basis set group =>   5
Atom  81N    basis set group =>   5
Atom  82N    basis set group =>   5
Atom  83N    basis set group =>   5
Atom  84N    basis set group =>   5
[...]
freq.     239.29  E(vib)   ...       0.31 
freq.     250.54  E(vib)   ...       0.30 
freq.     261.94  E(vib)   ...       0.29 
freq.     264.15  E(vib)   ...       0.29 
freq.     268.11  E(vib)   ...       0.29 
freq.     272.50  E(vib)   ...       0.29 
freq.     278.37  E(vib)   ...       0.28 
freq.     279.48  E(vib)   ...       0.28 
freq.     296.40  E(vib)   ...       0.27 
freq.     299.90  E(vib)   ...       0.26 
freq.     308.05  E(vib)   ...       0.26 
freq.     312.44  E(vib)   ...       0.25 
freq.     330.79  E(vib)   ...       0.24 
freq.     338.15  E(vib)   ...       0.24 
freq.     339.40  E(vib)   ...       0.23 
freq.     342.63  E(vib)   ...       0.23 
freq.     347.54  E(vib)   ...       0.23 
freq.     348.65  E(vib)   ...       0.23 
freq.     350.19  E(vib)   ...       0.23 
freq.     355.99  E(vib)   ...       0.22 
freq.     358.12  E(vib)   ...       0.22 
freq.     359.67  E(vib)   ...       0.22 
freq.     367.05  E(vib)   ...       0.22 
freq.     374.15  E(vib)   ...       0.21 
freq.     376.72  E(vib)   ...       0.21 
freq.     393.56  E(vib)   ...       0.20 
freq.     397.55  E(vib)   ...       0.20 
freq.     410.04  E(vib)   ...       0.19 
freq.     425.32  E(vib)   ...       0.18 
freq.     432.25  E(vib)   ...       0.18 
freq.     460.34  E(vib)   ...       0.16 
freq.     462.53  E(vib)   ...       0.16 
freq.     464.98  E(vib)   ...       0.16 
freq.     467.16  E(vib)   ...       0.16 
freq.     489.75  E(vib)   ...       0.15 
freq.     490.62  E(vib)   ...       0.15 
freq.     509.66  E(vib)   ...       0.14 
freq.     515.44  E(vib)   ...       0.13 
freq.     587.07  E(vib)   ...       0.10 
freq.     589.69  E(vib)   ...       0.10 
freq.     596.11  E(vib)   ...       0.10 
freq.     596.78  E(vib)   ...       0.10 
freq.     645.25  E(vib)   ...       0.09 
freq.     645.48  E(vib)   ...       0.09 
freq.     657.67  E(vib)   ...       0.08 
freq.     658.35  E(vib)   ...       0.08 
freq.     703.31  E(vib)   ...       0.07 
freq.     707.89  E(vib)   ...       0.07 
freq.     711.55  E(vib)   ...       0.07 
freq.     715.42  E(vib)   ...       0.07 
freq.     730.34  E(vib)   ...       0.06 
freq.     730.40  E(vib)   ...       0.06 
freq.     736.65  E(vib)   ...       0.06 
freq.     740.52  E(vib)   ...       0.06 
freq.     744.67  E(vib)   ...       0.06 
freq.     750.87  E(vib)   ...       0.06 
freq.     758.37  E(vib)   ...       0.06 
freq.     758.93  E(vib)   ...       0.06 
freq.     841.76  E(vib)   ...       0.04 
freq.     842.28  E(vib)   ...       0.04 
freq.     848.30  E(vib)   ...       0.04 
freq.     848.39  E(vib)   ...       0.04 
freq.     851.71  E(vib)   ...       0.04 
freq.     851.75  E(vib)   ...       0.04 
freq.     853.37  E(vib)   ...       0.04 
freq.     853.45  E(vib)   ...       0.04 
freq.     908.01  E(vib)   ...       0.03 
freq.     908.32  E(vib)   ...       0.03 
freq.     927.57  E(vib)   ...       0.03 
freq.     927.75  E(vib)   ...       0.03 
freq.     935.79  E(vib)   ...       0.03 
freq.     935.93  E(vib)   ...       0.03 
freq.     943.87  E(vib)   ...       0.03 
freq.     943.94  E(vib)   ...       0.03 
freq.     949.03  E(vib)   ...       0.03 
freq.     949.32  E(vib)   ...       0.03 
freq.     954.76  E(vib)   ...       0.03 
freq.     955.06  E(vib)   ...       0.03 
freq.     963.10  E(vib)   ...       0.03 
freq.     963.17  E(vib)   ...       0.03 
freq.     987.92  E(vib)   ...       0.02 
freq.     988.93  E(vib)   ...       0.02 
freq.    1006.04  E(vib)   ...       0.02 
freq.    1007.85  E(vib)   ...       0.02 
freq.    1028.11  E(vib)   ...       0.02 
freq.    1028.55  E(vib)   ...       0.02 
freq.    1035.24  E(vib)   ...       0.02 
freq.    1037.09  E(vib)   ...       0.02 
freq.    1039.59  E(vib)   ...       0.02 
freq.    1042.36  E(vib)   ...       0.02 
freq.    1047.58  E(vib)   ...       0.02 
freq.    1048.23  E(vib)   ...       0.02 
freq.    1050.96  E(vib)   ...       0.02 
freq.    1051.81  E(vib)   ...       0.02 
freq.    1052.47  E(vib)   ...       0.02 
freq.    1054.76  E(vib)   ...       0.02 
freq.    1055.40  E(vib)   ...       0.02 
freq.    1056.95  E(vib)   ...       0.02 
freq.    1121.23  E(vib)   ...       0.01 
freq.    1126.46  E(vib)   ...       0.01 
freq.    1138.91  E(vib)   ...       0.01 
freq.    1144.64  E(vib)   ...       0.01 
freq.    1153.32  E(vib)   ...       0.01 
freq.    1154.13  E(vib)   ...       0.01 
freq.    1175.41  E(vib)   ...       0.01 
freq.    1175.66  E(vib)   ...       0.01 
freq.    1193.29  E(vib)   ...       0.01 
freq.    1193.96  E(vib)   ...       0.01 
freq.    1210.92  E(vib)   ...       0.01 
freq.    1210.99  E(vib)   ...       0.01 
freq.    1217.01  E(vib)   ...       0.01 
freq.    1217.90  E(vib)   ...       0.01 
freq.    1228.63  E(vib)   ...       0.01 
freq.    1230.62  E(vib)   ...       0.01 
freq.    1240.01  E(vib)   ...       0.01 
freq.    1241.52  E(vib)   ...       0.01 
freq.    1253.59  E(vib)   ...       0.01 
freq.    1253.95  E(vib)   ...       0.01 
freq.    1257.43  E(vib)   ...       0.01 
freq.    1257.88  E(vib)   ...       0.01 
freq.    1263.67  E(vib)   ...       0.01 
freq.    1264.88  E(vib)   ...       0.01 
freq.    1287.39  E(vib)   ...       0.01 
freq.    1287.76  E(vib)   ...       0.01 
freq.    1323.36  E(vib)   ...       0.01 
freq.    1323.78  E(vib)   ...       0.01 
freq.    1328.57  E(vib)   ...       0.01 
freq.    1329.21  E(vib)   ...       0.01 
freq.    1351.79  E(vib)   ...       0.01 
freq.    1352.08  E(vib)   ...       0.01 
freq.    1363.15  E(vib)   ...       0.01 
freq.    1366.00  E(vib)   ...       0.01 
freq.    1380.97  E(vib)   ...       0.01 
freq.    1384.25  E(vib)   ...       0.00 
freq.    1388.53  E(vib)   ...       0.00 
freq.    1388.92  E(vib)   ...       0.00 
freq.    1391.14  E(vib)   ...       0.00 
freq.    1392.71  E(vib)   ...       0.00 
freq.    1394.85  E(vib)   ...       0.00 
freq.    1396.14  E(vib)   ...       0.00 
freq.    1396.23  E(vib)   ...       0.00 
freq.    1398.93  E(vib)   ...       0.00 
freq.    1417.53  E(vib)   ...       0.00 
freq.    1418.60  E(vib)   ...       0.00 
freq.    1421.52  E(vib)   ...       0.00 
freq.    1422.80  E(vib)   ...       0.00 
freq.    1443.92  E(vib)   ...       0.00 
freq.    1445.03  E(vib)   ...       0.00 
freq.    1455.23  E(vib)   ...       0.00 
freq.    1456.03  E(vib)   ...       0.00 
freq.    1457.32  E(vib)   ...       0.00 
freq.    1460.98  E(vib)   ...       0.00 
freq.    1461.95  E(vib)   ...       0.00 
freq.    1463.67  E(vib)   ...       0.00 
freq.    1472.93  E(vib)   ...       0.00 
freq.    1473.26  E(vib)   ...       0.00 
freq.    1476.43  E(vib)   ...       0.00 
freq.    1477.60  E(vib)   ...       0.00 
freq.    1480.01  E(vib)   ...       0.00 
freq.    1480.50  E(vib)   ...       0.00 
freq.    1483.39  E(vib)   ...       0.00 
freq.    1483.79  E(vib)   ...       0.00 
freq.    1487.84  E(vib)   ...       0.00 
freq.    1489.42  E(vib)   ...       0.00 
freq.    1492.21  E(vib)   ...       0.00 
freq.    1492.41  E(vib)   ...       0.00 
freq.    1496.97  E(vib)   ...       0.00 
freq.    1497.70  E(vib)   ...       0.00 
freq.    1505.48  E(vib)   ...       0.00 
freq.    1505.55  E(vib)   ...       0.00 
freq.    1517.60  E(vib)   ...       0.00 
freq.    1518.46  E(vib)   ...       0.00 
freq.    1520.55  E(vib)   ...       0.00 
freq.    1520.66  E(vib)   ...       0.00 
freq.    1611.80  E(vib)   ...       0.00 
freq.    1612.20  E(vib)   ...       0.00 
freq.    1637.94  E(vib)   ...       0.00 
freq.    1638.27  E(vib)   ...       0.00 
freq.    2406.32  E(vib)   ...       0.00 
freq.    2406.90  E(vib)   ...       0.00 
freq.    2456.52  E(vib)   ...       0.00 
freq.    2457.29  E(vib)   ...       0.00 
freq.    2930.92  E(vib)   ...       0.00 
freq.    2931.98  E(vib)   ...       0.00 
freq.    3051.20  E(vib)   ...       0.00 
freq.    3051.44  E(vib)   ...       0.00 
freq.    3052.77  E(vib)   ...       0.00 
freq.    3052.92  E(vib)   ...       0.00 
freq.    3056.47  E(vib)   ...       0.00 
freq.    3056.63  E(vib)   ...       0.00 
freq.    3059.58  E(vib)   ...       0.00 
freq.    3059.67  E(vib)   ...       0.00 
freq.    3068.43  E(vib)   ...       0.00 
freq.    3068.69  E(vib)   ...       0.00 
freq.    3112.67  E(vib)   ...       0.00 
freq.    3112.92  E(vib)   ...       0.00 
freq.    3120.98  E(vib)   ...       0.00 
freq.    3121.31  E(vib)   ...       0.00 
freq.    3129.46  E(vib)   ...       0.00 
freq.    3129.94  E(vib)   ...       0.00 
freq.    3131.33  E(vib)   ...       0.00 
freq.    3131.36  E(vib)   ...       0.00 
freq.    3132.81  E(vib)   ...       0.00 
freq.    3132.95  E(vib)   ...       0.00 
freq.    3133.96  E(vib)   ...       0.00 
freq.    3134.17  E(vib)   ...       0.00 
freq.    3137.57  E(vib)   ...       0.00 
freq.    3137.79  E(vib)   ...       0.00 
freq.    3141.32  E(vib)   ...       0.00 
freq.    3141.35  E(vib)   ...       0.00 
freq.    3145.22  E(vib)   ...       0.00 
freq.    3145.33  E(vib)   ...       0.00 
freq.    3170.83  E(vib)   ...       0.00 
freq.    3171.72  E(vib)   ...       0.00 
freq.    3181.79  E(vib)   ...       0.00 
freq.    3182.34  E(vib)   ...       0.00 
freq.    3254.87  E(vib)   ...       0.00 
freq.    3255.13  E(vib)   ...       0.00 
freq.    3281.53  E(vib)   ...       0.00 
freq.    3281.55  E(vib)   ...       0.00 
freq.    3295.19  E(vib)   ...       0.00 
freq.    3295.41  E(vib)   ...       0.00 
freq.    3304.57  E(vib)   ...       0.00 
freq.    3304.67  E(vib)   ...       0.00 
freq.    3342.67  E(vib)   ...       0.00 
freq.    3342.94  E(vib)   ...       0.00 

------------
INNER ENERGY
------------

The inner energy is: U= E(el) + E(ZPE) + E(vib) + E(rot) + E(trans)
    E(el)   - is the total energy from the electronic structure calculation
              = E(kin-el) + E(nuc-el) + E(el-el) + E(nuc-nuc)
    E(ZPE)  - the the zero temperature vibrational energy from the frequency calculation
    E(vib)  - the the finite temperature correction to E(ZPE) due to population
              of excited vibrational states
    E(rot)  - is the rotational thermal energy
    E(trans)- is the translational thermal energy

Summary of contributions to the inner energy U:
Electronic energy                ...  -2845.83772091 Eh
Zero point energy                ...      0.74721723 Eh     468.88 kcal/mol
Thermal vibrational correction   ...      0.03831955 Eh      24.05 kcal/mol
Thermal rotational correction    ...      0.00141627 Eh       0.89 kcal/mol
Thermal translational correction ...      0.00141627 Eh       0.89 kcal/mol
-----------------------------------------------------------------------
Total thermal energy                  -2845.04935159 Eh


Summary of corrections to the electronic energy:
(perhaps to be used in another calculation)
Total thermal correction                  0.04115210 Eh      25.82 kcal/mol
Non-thermal (ZPE) correction              0.74721723 Eh     468.88 kcal/mol
-----------------------------------------------------------------------
Total correction                          0.78836933 Eh     494.71 kcal/mol


--------
ENTHALPY
--------

The enthalpy is H = U + kB*T
                kB is Boltzmann's constant
Total thermal energy              ...  -2845.04935159 Eh 
Thermal Enthalpy correction       ...      0.00094421 Eh       0.59 kcal/mol
-----------------------------------------------------------------------
Total Enthalpy                    ...  -2845.04840738 Eh


Note: Only C1 symmetry has been detected, increase convergence thresholds 
      if your molecule has a higher symmetry. Symmetry factor of 1.0 is   
      used for the rotational entropy correction. 
 

Note: Rotational entropy computed according to Herzberg 
Infrared and Raman Spectra, Chapter V,1, Van Nostrand Reinhold, 1945 
Point Group:  C1, Symmetry Number:   1  
Rotational constants in cm-1:     0.003893     0.003468     0.002995 

Vibrational entropy computed according to the QRRHO of S. Grimme
Chem.Eur.J. 2012 18 9955 using a reference frequency of 100.0 cm-1


-------
ENTROPY
-------

The entropy contributions are T*S = T*(S(el)+S(vib)+S(rot)+S(trans))
     S(el)   - electronic entropy
     S(vib)  - vibrational entropy
     S(rot)  - rotational entropy
     S(trans)- translational entropy
The entropies will be listed as multiplied by the temperature to get
units of energy

Electronic entropy                ...      0.00000000 Eh      0.00 kcal/mol
Vibrational entropy               ...      0.06636100 Eh     41.64 kcal/mol
Rotational entropy                ...      0.01754746 Eh     11.01 kcal/mol
Translational entropy             ...      0.02134666 Eh     13.40 kcal/mol
-----------------------------------------------------------------------
Final entropy term                ...      0.10525512 Eh     66.05 kcal/mol

In case the symmetry of your molecule has not been determined correctly
or in case you have a reason to use a different symmetry number we print 
out the resulting rotational entropy values for sn=1,12:

 non-linear molecules -----------------------------------
|  sn= 1 | S(rot)=       0.01754746 Eh     11.01 kcal/mol|
|  sn= 2 | S(rot)=       0.01689300 Eh     10.60 kcal/mol|
|  sn= 3 | S(rot)=       0.01651017 Eh     10.36 kcal/mol|
|  sn= 4 | S(rot)=       0.01623855 Eh     10.19 kcal/mol|
|  sn= 5 | S(rot)=       0.01602786 Eh     10.06 kcal/mol|
|  sn= 6 | S(rot)=       0.01585572 Eh      9.95 kcal/mol|
|  sn= 7 | S(rot)=       0.01571017 Eh      9.86 kcal/mol|
|  sn= 8 | S(rot)=       0.01558409 Eh      9.78 kcal/mol|
|  sn= 9 | S(rot)=       0.01547288 Eh      9.71 kcal/mol|
|  sn=10 | S(rot)=       0.01537340 Eh      9.65 kcal/mol|
|  sn=11 | S(rot)=       0.01528341 Eh      9.59 kcal/mol|
|  sn=12 | S(rot)=       0.01520126 Eh      9.54 kcal/mol|
 linear molecules ---------------------------------------
|  Dinfh | S(rot)=       0.01081217 Eh      6.78 kcal/mol|
|  Cinfv | S(rot)=       0.01146662 Eh      7.20 kcal/mol|
 --------------------------------------------------------


-------------------
GIBBS FREE ENERGY
-------------------

The Gibbs free energy is G = H - T*S

Total enthalpy                    ...  -2845.04840738 Eh 
Total entropy correction          ...     -0.10525512 Eh    -66.05 kcal/mol
-----------------------------------------------------------------------
Final Gibbs free energy         ...  -2845.15366250 Eh

For completeness - the Gibbs free energy minus the electronic energy
G-E(el)                           ...      0.68405842 Eh    429.25 kcal/mol


Maximum memory used throughout the entire PROP-calculation: 1971.8 MB

--------------------------------
SUGGESTED CITATIONS FOR THIS RUN
--------------------------------

Below you find a list of papers that are relevant to this ORCA run
We neither can nor want to force you to cite these papers, but we appreciate if you do
You receive ORCA, which is the product of decades of hard work by many enthusiastic individuals, for free
The only thing we kindly ask in return is that you cite our papers,
We deeply appreciate it, if you show your appreciation for ORCA by not just citing the generic ORCA reference.

Please note that relegating all ORCA citations to the supporting information does *not* help us.
SI sections are not indexed - citations you put there will not count into any citation statistics
But we need these citations in order to attract the funding resources that allow us to do what we are doing

Therefore, if you are a happy ORCA user, please consider citing a few of the papers listed below in the main body of your paper

In addition to the list printed below, the program has created the file GORKIJ-S5.bibtex that contains the list in bibtex format
You can import this file easily into all common literature databanks and citation aid programs


List of essential papers. We consider these as the minimum necessary citations

  1. Neese,F.
     Software update: the ORCA program system, version 5.0
     WIRES Comput. Molec. Sci., 2022 12(1)e1606
     doi.org/10.1002/wcms.1606

List of papers to cite with high priority. The work reported in these papers was absolutely
necessary for this run to complete.
Our perspective: the developers of density functionals and basis sets usually get cited in chemistry papers
Good! But without the algorithms to do something with them, the functionals or basis sets would not do anything.
Hence, in our opinion, the algorithm design and method developments papers are equally worthy of getting cited

  1. Neese,F.
     An improvement of the resolution of the identity approximation for the formation of the Coulomb matrix
     J. Comp. Chem., 2003 24(14)1740-1747
     doi.org/10.1002/jcc.10318
  2. Neese,F.; Wennmohs,F.; Hansen,A.; Becker,U.
     Efficient, approximate and parallel Hartree-Fock and hybrid DFT calculations. A 'chain-of-spheres' algorithm for the Hartree-Fock exchange
     Chem. Phys., 2009 356(1-3)98-109
     doi.org/10.1016/j.chemphys.2008.10.036
  3. Bykov,D.; Petrenko,T.; Izsak,R.; Kossmann,S.; Becker,U.; Valeev,E.; Neese,F.
     Efficient implementation of the analytic second derivatives of Hartree-Fock and hybrid DFT energies: a detailed analysis of different approximations
     Molec. Phys., 2015 113 1961-1977
     doi.org/10.1080/00268976.2015.1025114
  4. Helmich-Paris,B.; de Souza,B.; Neese,F.; Izsák,R.
     An improved chain of spheres for exchange algorithm
     J. Chem. Phys., 2021 155 104109
     doi.org/doi: 10.1063/5.0058766.
  5. Neese,F.
     The SHARK Integral Generation and Digestion System
     J. Comp. Chem., 2022  1-16
     doi.org/10.1002/jcc.26942

List of suggested additional citations. These are papers that are important in the 'surrounding' of 
of this run, or papers that preceded the highly important papers. If you like your results we are grateful for a citation.

  1. Izsak,R.; Neese,F.
     An overlap fitted chain of spheres exchange method
     J. Chem. Phys., 2011 135 144105
     doi.org/10.1063/1.3646921
  2. Izsak,R.; Hansen,A.; Neese,F.
     The resolution of identity and chain of spheres approximations for the LPNO-CCSD singles Fock term
     Molec. Phys., 2012 110 2413-2417
     doi.org/10.1080/00268976.2012.687466
  3. Neese,F.
     The ORCA program system
     WIRES Comput. Molec. Sci., 2012 2(1)73-78
     doi.org/10.1002/wcms.81
  4. Izsak,R.; Neese,F.; Klopper,W.
     Robust fitting techniques in the chain of spheres approximation to the Fock exchange: The role of the complementary space
     J. Chem. Phys., 2013 139 
     doi.org/10.1063/1.4819264
  5. Neese,F.
     Software update: the ORCA program system, version 4.0
     WIRES Comput. Molec. Sci., 2018 8(1)1-6
     doi.org/10.1002/wcms.1327
  6. Neese,F.; Wennmohs,F.; Becker,U.; Riplinger,C.
     The ORCA quantum chemistry program package
     J. Chem. Phys., 2020 152 Art. No. L224108
     doi.org/10.1063/5.0004608

List of optional additional citations

  1. Neese,F.
     Approximate second-order SCF convergence for spin unrestricted wavefunctions
     Chem. Phys. Lett., 2000 325(1-3)93-98
     doi.org/10.1016/s0009-2614(00)00662-x

Timings for individual modules:

Sum of individual times          ...    52926.792 sec (= 882.113 min)
Startup calculation              ...      689.154 sec (=  11.486 min)   1.3 %
SCF iterations                   ...    18361.788 sec (= 306.030 min)  34.7 %
Property integrals               ...    10639.618 sec (= 177.327 min)  20.1 %
SCF Response                     ...    16089.031 sec (= 268.151 min)  30.4 %
Property calculations            ...     3378.528 sec (=  56.309 min)   6.4 %
SCF Gradient evaluation          ...     3765.660 sec (=  62.761 min)   7.1 %
Geometry relaxation              ...        3.014 sec (=   0.050 min)   0.0 %
                             ****ORCA TERMINATED NORMALLY****
TOTAL RUN TIME: 0 days 14 hours 43 minutes 9 seconds 575 msec
