
                                 *****************
                                 * O   R   C   A *
                                 *****************

                                            #,                                       
                                            ###                                      
                                            ####                                     
                                            #####                                    
                                            ######                                   
                                           ########,                                 
                                     ,,################,,,,,                         
                               ,,#################################,,                 
                          ,,##########################################,,             
                       ,#########################################, ''#####,          
                    ,#############################################,,   '####,        
                  ,##################################################,,,,####,       
                ,###########''''           ''''###############################       
              ,#####''   ,,,,##########,,,,          '''####'''          '####       
            ,##' ,,,,###########################,,,                        '##       
           ' ,,###''''                  '''############,,,                           
         ,,##''                                '''############,,,,        ,,,,,,###''
      ,#''                                            '''#######################'''  
     '                                                          ''''####''''         
             ,#######,   #######,   ,#######,      ##                                
            ,#'     '#,  ##    ##  ,#'     '#,    #''#        ,####,   ,####,        
            ##       ##  ##   ,#'  ##            #'  '#       #'       #'  '#        
            ##       ##  #######   ##           ,######,      #####,   #    #        
            '#,     ,#'  ##    ##  '#,     ,#' ,#      #,     #,   #   #,  ,#        
             '#######'   ##     ##  '#######'  #'      '#     '####' # '####'        



                #########################################################
                #                        -***-                          #
                #          Department of theory and spectroscopy        #
                #                                                       #
                #                      Frank Neese                      #
                #                                                       #
                #     Directorship, Architecture, Infrastructure        #
                #                    SHARK, DRIVERS                     #
                #        Core code/Algorithms in most modules           #
                #                                                       #
                #        Max Planck Institute fuer Kohlenforschung      #
                #                Kaiser Wilhelm Platz 1                 #
                #                 D-45470 Muelheim/Ruhr                 #
                #                      Germany                          #
                #                                                       #
                #                  All rights reserved                  #
                #                        -***-                          #
                #########################################################


                         Program Version 6.0.1  -  RELEASE   -


 With contributions from (in alphabetic order):
[Max-Planck-Institut fuer Kohlenforschung]                               
  Daniel Aravena         : Magnetic Suceptibility                        
  Michael Atanasov       : Ab Initio Ligand Field Theory (pilot matlab implementation)
  Alexander A. Auer      : GIAO ZORA, VPT2 properties, NMR spectrum      
  Ute Becker             : All parallelization in ORCA, NUMFREQ, NUMCALC 
  Giovanni Bistoni       : ED, misc. LED, open-shell LED, HFLD           
  Martin Brehm           : Molecular dynamics                            
  Dmytro Bykov           : pre 5.0 version of the SCF Hessian            
  Marcos Casanova-Páez   : Triplet and SCS-CIS(D). UHF-(DLPNO)-IP/EA/STEOM-CCSD. UHF-CVS-IP/STEOM-CCSD   
  Vijay G. Chilkuri      : MRCI spin determinant printing, contributions to CSF-ICE 
  Pauline Colinet        : FMM embedding                                 
  Dipayan Datta          : RHF DLPNO-CCSD density                        
  Achintya Kumar Dutta   : EOM-CC, STEOM-CC                              
  Nicolas Foglia         : Exact transition moments, OPA infrastructure, MCD improvements    
  Dmitry Ganyushin       : Spin-Orbit,Spin-Spin,Magnetic field MRCI      
  Miquel Garcia-Rates    : C-PCM and meta-GGA Hessian, CCSD/C-PCM, Gaussian charge scheme 
  Tiago L. C. Gouveia    : GS-ROHF, GS-ROCIS                             
  Yang Guo               : DLPNO-NEVPT2, F12-NEVPT2, CIM, IAO-localization        
  Andreas Hansen         : Spin unrestricted coupled pair/coupled cluster methods 
  Ingolf Harden          : AUTO-CI MPn and infrastructure                
  Benjamin Helmich-Paris : MC-RPA, TRAH-(SCF,CASSCF), AVAS, COSX integrals, SCF dyn. polar. 
  Lee Huntington         : MR-EOM, pCC                                   
  Robert Izsak           : Overlap fitted RIJCOSX, COSX-SCS-MP3, EOM     
  Riya Kayal             : Wick's Theorem for AUTO-CI, AUTO-CI UHF-CCSDT 
  Emily Kempfer          : AUTO-CI, RHF CISDT and CCSDT                  
  Christian Kollmar      : KDIIS, OOCD, Brueckner-CCSD(T), CCSD density, CASPT2, CASPT2-K, improved NEVPT2 
  Axel Koslowski         : Symmetry handling                             
  Simone Kossmann        : meta-GGA functionals, TD-DFT gradient, OOMP2, (MP2 Hessian; deprecated post 5.0) 
  Lucas Lang             : DCDCAS                                        
  Marvin Lechner         : AUTO-CI (C++ implementation), FIC-MRCC        
  Spencer Leger          : CASSCF response                               
  Dagmar Lenk            : GEPOL surface, SMD, ORCA-2-JSON               
  Dimitrios Liakos       : Extrapolation schemes; Compound Job, initial MDCI parallelization 
  Dimitrios Manganas     : Further ROCIS development; embedding schemes. LFT, Crystal Embedding 
  Dimitrios Pantazis     : SARC Basis sets                               
  Anastasios Papadopoulos: AUTO-CI, single reference methods and gradients 
  Taras Petrenko         : pre 6.0 DFT Hessian and TD-DFT gradient, (ASA, deprecated), ECA, 1-Electron XAS/XES, NRVS 
  Peter Pinski           : DLPNO-MP2, DLPNO-MP2 Gradient                 
  Christoph Reimann      : Effective Core Potentials                     
  Marius Retegan         : Local ZFS, SOC                                
  Christoph Riplinger    : Optimizer, TS searches, QM/MM, DLPNO-CCSD(T), (RO)-DLPNO pert. Triples 
  Michael Roemelt        : Original ROCIS implementation                 
  Masaaki Saitow         : Open-shell DLPNO-CCSD energy and density      
  Barbara Sandhoefer     : DKH picture change effects                    
  Kantharuban Sivalingam : CASSCF convergence/infrastructure, NEVPT2 and variants, FIC-MRCI 
  Bernardo de Souza      : ESD, SOC TD-DFT                               
  Georgi L. Stoychev     : AutoAux, RI-MP2 NMR, DLPNO-MP2 response, X2C  
  Van Anh Tran           : RI-MP2 g-tensors                              
  Willem Van den Heuvel  : Paramagnetic NMR                              
  Zikuan Wang            : NOTCH, Electric field optimization            
  Frank Wennmohs         : Technical directorship and infrastructure     
  Hang Xu                : AUTO-CI-Response properties                   
                                                                         
[FACCTs GmbH]                                                            
  Markus Bursch, Miquel Garcia-Rates, Christoph Riplinger, Bernardo de Souza, Georgi L. Stoychev 
                                                                 
  APM, Basis sets (HGBS, AHGBS, def-TZVP (Ac-Lr), def2-XVPD (La-Lu)), CI-OPT, improved COSX, DLPNO-Multilevel,           
  DOCKER, DRACO, updates on ESD, GOAT, IRC, LR-CPCM, MBIS, meta-GGA TD-DFT gradient, ML-optimized integration grids, 
  MM, NACMEs, nearIR, NEB, NEB-TS, NL-DFT gradient (VV10), 2- and 3-layer-ONIOM, interface openCOSMO-RS, QMMM,   
  Crystal-QMMM, SF, symmetry and pop. for TD-DFT, r2SCAN hybrids, SOLVATOR                                   
                                                                         
[Other institutions]                                                     
  V. Asgeirsson          : NEB                                           
  Christoph Bannwarth    : sTDA-DFT, sTD-DFT, PBEh-3c, B97-3c, D3        
  Sebastian Ehlert       : rSCAN, r2SCAN, r2SCAN-3c, D4, dhf basis sets  
  Marvin Friede          : D4 for Fr, Ra, Ac-Lr                          
  Lars Goerigk           : TD-DFT with DH, B97 family of functionals     
  Stefan Grimme          : VdW corrections, initial TS optimization, DFT functionals, gCP, sTDA/sTD-DF 
  Waldemar Hujo          : DFT-NL                                        
  H. Jonsson             : NEB                                           
  Holger Kruse           : gCP                                           
  Marcel Mueller         : wB97X-3c, vDZP basis set                      
  Hagen Neugebauer       : wr2SCAN                                       
  Tobias Risthaus        : range-separated hybrid DFT                    
  Lukas Wittmann         : regularized MP2, r2SCAN double-hybrids, wr2SCAN        
                                                                         
We gratefully acknowledge several colleagues who have allowed us to      
interface, adapt or use parts of their codes:                            
  Ed Valeev, F. Pavosevic, A. Kumar             : LibInt (2-el integral package), F12 methods 
  Garnet Chan, S. Sharma, J. Yang, R. Olivares  : DMRG                   
  Ulf Ekstrom                                   : XCFun DFT Library      
  Mihaly Kallay                                 : mrcc  (arbitrary order and MRCC methods)
  Frank Weinhold                                : gennbo (NPA and NBO analysis)           
  Simon Mueller                                 : openCOSMO-RS                            
  Christopher J. Cramer and Donald G. Truhlar   : smd solvation model                     
  S Lehtola, MJT Oliveira, MAL Marques          : LibXC Library                           
  Liviu Ungur et al                             : ANISO software                          


 Your calculation uses the libint2 library for the computation of 2-el integrals
 For citations please refer to: http://libint.valeyev.net

 Your ORCA version has been built with support for libXC version: 6.2.2
 For citations please refer to: https://libxc.gitlab.io

 This ORCA versions uses:
   CBLAS   interface :  Fast vector & matrix operations
   LAPACKE interface :  Fast linear algebra routines
   SCALAPACK package :  Parallel linear algebra routines
   Shared memory     :  Shared parallel matrices
   BLAS/LAPACK       :  OpenBLAS 0.3.27  USE64BITINT DYNAMIC_ARCH NO_AFFINITY Cooperlake SINGLE_THREADED
        Core in use  :  Cooperlake
   Copyright (c) 2011-2014, The OpenBLAS Project


NOTE: MaxCore=3600 MB was set to SCF,MP2,MDCI,CIPSI,MRCI and CIS
      => If you want to overwrite this, your respective input block should be placed after the MaxCore statement
Warning: RI is on but no J-basis has been assigned. Assigning Def2/J (nothing to worry about!)
================================================================================

----- Orbital basis set information -----
Your calculation utilizes the basis: def2-TZVP
   F. Weigend and R. Ahlrichs, Phys. Chem. Chem. Phys. 7, 3297 (2005).

----- AuxJ basis set information -----
Your calculation utilizes the auxiliary basis: def2/J
   F. Weigend, Phys. Chem. Chem. Phys. 8, 1057 (2006).

================================================================================
                                        WARNINGS
                       Please study these warnings very carefully!
================================================================================


WARNING: Geometry Optimization
  ===> : Switching off AutoStart
         For restart on a previous wavefunction, please use MOREAD

================================================================================
                                       INPUT FILE
================================================================================
NAME = IBUVUW02-S1.inp
|  1> ! PBE0 def2-TZVP  Opt Freq DEFGRID3
|  2> 
|  3> %maxcore 3600
|  4> 
|  5> %pal
|  6>     nprocs 16
|  7> end
|  8> 
|  9> *xyz 0 1
| 10> Fe 6.1765 -2.3012 15.5689
| 11> N 6.8568 -1.1986 17.3469
| 12> N 6.6153 -0.335 14.8465
| 13> N 6.5981 0.2962 13.6217
| 14> N 7.424 1.6673 15.15
| 15> N 8.0531 2.7667 15.7947
| 16> N 7.6768 3.737 13.1667
| 17> N 4.1916 -1.6958 15.8959
| 18> N 1.8491 -1.0471 16.0858
| 19> N 0.8774 1.1703 15.8788
| 20> C 6.9316 -1.7079 18.5846
| 21> H 6.6616 -2.5862 18.7263
| 22> C 7.3983 -0.9704 19.6589
| 23> H 7.4253 -1.3438 20.5105
| 24> C 7.8223 0.3218 19.4518
| 25> H 8.1503 0.8269 20.1602
| 26> C 7.7574 0.8639 18.1814
| 27> H 8.038 1.7362 18.0195
| 28> C 7.2607 0.0698 17.1523
| 29> C 7.1153 0.4963 15.7527
| 30> C 7.096 1.5036 13.833
| 31> C 7.2787 2.5212 12.7696
| 32> C 7.0286 2.1838 11.4525
| 33> H 6.7363 1.3318 11.2205
| 34> C 7.2296 3.16 10.4935
| 35> H 7.0628 2.9782 9.5967
| 36> C 7.6734 4.3929 10.8765
| 37> H 7.8394 5.0535 10.2428
| 38> C 7.8714 4.6367 12.1983
| 39> H 8.1607 5.4857 12.4443
| 40> C 3.1295 -1.2554 15.9955
| 41> C 1.3267 0.1007 15.9037
| 42> H 8.1709 3.5261 15.242
| 43> H 9.0115 2.6801 15.8336
| 44> N 5.4961 -3.4038 13.791
| 45> N 5.7377 -4.2674 16.2913
| 46> N 5.7549 -4.8986 17.5162
| 47> N 4.9289 -6.2697 15.9879
| 48> N 4.2999 -7.3691 15.3432
| 49> N 4.6761 -8.3394 17.9712
| 50> N 8.1613 -2.9066 15.242
| 51> N 10.5038 -3.5553 15.0521
| 52> N 11.4756 -5.7727 15.2591
| 53> C 5.4213 -2.8945 12.5532
| 54> H 5.6913 -2.0162 12.4116
| 55> C 4.9546 -3.632 11.479
| 56> H 4.9276 -3.2586 10.6274
| 57> C 4.5307 -4.9242 11.686
| 58> H 4.2026 -5.4293 10.9777
| 59> C 4.5955 -5.4663 12.9565
| 60> H 4.315 -6.3386 13.1184
| 61> C 5.0923 -4.6722 13.9856
| 62> C 5.2377 -5.0986 15.3852
| 63> C 5.2569 -6.106 17.3049
| 64> C 5.0743 -7.1235 18.3682
| 65> C 5.3244 -6.7862 19.6854
| 66> H 5.6167 -5.9342 19.9174
| 67> C 5.1234 -7.7624 20.6444
| 68> H 5.2901 -7.5805 21.5412
| 69> C 4.6795 -8.9953 20.2614
| 70> H 4.5136 -9.6559 20.8951
| 71> C 4.4815 -9.2391 18.9396
| 72> H 4.1923 -10.0881 18.6936
| 73> C 9.2235 -3.347 15.1424
| 74> C 11.0263 -4.703 15.2342
| 75> H 4.182 -8.1285 15.8959
| 76> H 3.3415 -7.2825 15.3043
| 77> *
| 78> 
| 79>                          ****END OF INPUT****
================================================================================

                       *****************************
                       * Geometry Optimization Run *
                       *****************************

Geometry optimization settings:
Update method            Update   .... BFGS
Choice of coordinates    CoordSys .... (2022) Redundant Internals
Initial Hessian          InHess   .... Almloef's Model
Max. no of cycles        MaxIter  .... 201

Convergence Tolerances:
Energy Change            TolE     ....  5.0000e-06 Eh
Max. Gradient            TolMAXG  ....  3.0000e-04 Eh/bohr
RMS Gradient             TolRMSG  ....  1.0000e-04 Eh/bohr
Max. Displacement        TolMAXD  ....  4.0000e-03 bohr
RMS Displacement         TolRMSD  ....  2.0000e-03 bohr
Strict Convergence                .... False

------------------------------------------------------------------------------
                        ORCA OPTIMIZATION COORDINATE SETUP
------------------------------------------------------------------------------

The optimization will be done in redundant internal coordinates (2022)
Making redundant internal coordinates   ...  (2022 redundants) done
Evaluating the initial hessian          ...  (Almloef) done
Evaluating the coordinates              ...  done
Calculating the B-matrix                .... done
Calculating the G-matrix                .... done
Diagonalizing the G-matrix              .... done
Small eigenvalue found = 1.816e-03
Small eigenvalue found = 3.939e-03
Small eigenvalue found = 4.235e-03
Small eigenvalue found = 5.362e-03
Small eigenvalue found = 5.746e-03
Small eigenvalue found = 1.257e-02
Small eigenvalue found = 1.407e-02
Small eigenvalue found = 1.959e-02
Small eigenvalue found = 2.269e-02
Small eigenvalue found = 2.823e-02
Small eigenvalue found = 2.863e-02
The first mode is                       ....  200
The number of degrees of freedom        ....  195

    -----------------------------------------------------------------
                    Redundant Internal Coordinates


    -----------------------------------------------------------------
         Definition                    Initial Value    Approx d2E/dq
    -----------------------------------------------------------------
      1. B(N   1,Fe  0)                  2.2000         0.288910   
      2. B(N   2,Fe  0)                  2.1402         0.359868   
      3. B(N   3,N   2)                  1.3780         0.523818   
      4. B(N   5,N   4)                  1.4213         0.446766   
      5. B(N   7,Fe  0)                  2.1008         0.415911   
      6. B(C  10,N   1)                  1.3405         0.671249   
      7. B(H  11,C  10)                  0.9297         0.648830   
      8. B(C  12,C  10)                  1.3841         0.638399   
      9. B(H  13,C  12)                  0.9303         0.647563   
     10. B(C  14,C  12)                  1.3757         0.658587   
     11. B(H  15,C  14)                  0.9298         0.648636   
     12. B(C  16,C  14)                  1.3828         0.641658   
     13. B(H  17,C  16)                  0.9305         0.646955   
     14. B(C  18,C  16)                  1.3915         0.621297   
     15. B(C  18,N   1)                  1.3453         0.659455   
     16. B(C  19,N   4)                  1.3527         0.641790   
     17. B(C  19,N   2)                  1.3275         0.704027   
     18. B(C  19,C  18)                  1.4703         0.465102   
     19. B(C  20,N   4)                  1.3671         0.608786   
     20. B(C  20,N   3)                  1.3230         0.715726   
     21. B(C  21,C  20)                  1.4831         0.443749   
     22. B(C  21,N   6)                  1.3395         0.673591   
     23. B(C  22,C  21)                  1.3824         0.642391   
     24. B(H  23,C  22)                  0.9301         0.647834   
     25. B(C  24,C  22)                  1.3831         0.640766   
     26. B(H  25,C  24)                  0.9301         0.647890   
     27. B(C  26,C  24)                  1.3652         0.684467   
     28. B(H  27,C  26)                  0.9303         0.647378   
     29. B(C  28,C  26)                  1.3586         0.701186   
     30. B(C  28,N   6)                  1.3361         0.682167   
     31. B(H  29,C  28)                  0.9301         0.648033   
     32. B(C  30,N   8)                  1.3004         0.777806   
     33. B(C  30,N   7)                  1.1541         1.331225   
     34. B(C  31,N   9)                  1.1604         1.300718   
     35. B(C  31,N   8)                  1.2742         0.856399   
     36. B(H  32,N   6)                  2.1437         0.006721   
     37. B(H  32,N   5)                  0.9466         0.546202   
     38. B(H  33,N   5)                  0.9631         0.514086   
     39. B(N  34,Fe  0)                  2.1999         0.288963   
     40. B(N  35,Fe  0)                  2.1402         0.359868   
     41. B(N  36,N  35)                  1.3781         0.523647   
     42. B(N  38,N  37)                  1.4213         0.446838   
     43. B(N  40,Fe  0)                  2.1007         0.416079   
     44. B(C  43,N  34)                  1.3406         0.671021   
     45. B(H  44,C  43)                  0.9297         0.648866   
     46. B(C  45,C  43)                  1.3841         0.638581   
     47. B(H  46,C  45)                  0.9303         0.647563   
     48. B(C  47,C  45)                  1.3756         0.658698   
     49. B(H  48,C  47)                  0.9298         0.648734   
     50. B(C  49,C  47)                  1.3828         0.641453   
     51. B(H  50,C  49)                  0.9305         0.647026   
     52. B(C  51,C  49)                  1.3916         0.621216   
     53. B(C  51,N  34)                  1.3453         0.659528   
     54. B(C  52,C  51)                  1.4703         0.465152   
     55. B(C  52,N  37)                  1.3528         0.641532   
     56. B(C  52,N  35)                  1.3274         0.704365   
     57. B(C  53,N  37)                  1.3671         0.608786   
     58. B(C  53,N  36)                  1.3231         0.715627   
     59. B(C  54,C  53)                  1.4830         0.443998   
     60. B(C  54,N  39)                  1.3396         0.673367   
     61. B(C  55,C  54)                  1.3825         0.642224   
     62. B(H  56,C  55)                  0.9301         0.647834   
     63. B(C  57,C  55)                  1.3831         0.640766   
     64. B(H  58,C  57)                  0.9301         0.647886   
     65. B(C  59,C  57)                  1.3652         0.684386   
     66. B(H  60,C  59)                  0.9303         0.647420   
     67. B(C  61,C  59)                  1.3586         0.701186   
     68. B(C  61,N  39)                  1.3361         0.682167   
     69. B(H  62,C  61)                  0.9300         0.648107   
     70. B(C  63,N  41)                  1.3003         0.778087   
     71. B(C  63,N  40)                  1.1542         1.330775   
     72. B(C  64,N  42)                  1.1605         1.300278   
     73. B(C  64,N  41)                  1.2741         0.856554   
     74. B(H  65,N  39)                  2.1437         0.006721   
     75. B(H  65,N  38)                  0.9466         0.546177   
     76. B(H  66,N  38)                  0.9631         0.514086   
     77. A(N   1,Fe  0,N   7)           91.2573         0.438645   
     78. A(N   2,Fe  0,N   7)           88.9405         0.456465   
     79. A(N   2,Fe  0,N  34)          104.5415         0.427391   
     80. A(N   2,Fe  0,N  40)           91.0611         0.456498   
     81. A(N  34,Fe  0,N  40)           91.2616         0.438691   
     82. A(N   7,Fe  0,N  34)           88.7398         0.438659   
     83. A(N   1,Fe  0,N  35)          104.5397         0.427377   
     84. A(N  35,Fe  0,N  40)           88.9389         0.456498   
     85. A(N   1,Fe  0,N  40)           88.7413         0.438677   
     86. A(N   7,Fe  0,N  35)           91.0595         0.456465   
     87. A(N  34,Fe  0,N  35)           75.4585         0.427391   
     88. A(N   1,Fe  0,N   2)           75.4603         0.427377   
     89. A(Fe  0,N   1,C  10)          124.9641         0.425570   
     90. A(C  10,N   1,C  18)          118.3611         0.439426   
     91. A(Fe  0,N   1,C  18)          116.6459         0.424222   
     92. A(Fe  0,N   2,N   3)          135.9130         0.420609   
     93. A(N   3,N   2,C  19)          108.9418         0.422417   
     94. A(Fe  0,N   2,C  19)          114.9682         0.446561   
     95. A(N   2,N   3,C  20)          105.7462         0.423663   
     96. A(C  19,N   4,C  20)          105.7132         0.429664   
     97. A(N   5,N   4,C  19)          124.6476         0.403956   
     98. A(N   5,N   4,C  20)          129.4802         0.400215   
     99. A(N   4,N   5,H  32)          114.2541         0.350731   
    100. A(N   4,N   5,H  33)          112.9069         0.347166   
    101. A(H  32,N   5,H  33)           88.3887         0.323839   
    102. A(C  21,N   6,C  28)          116.0787         0.442401   
    103. A(Fe  0,N   7,C  30)          173.1828         0.515772   
    104. A(C  30,N   8,C  31)          122.5523         0.473385   
    105. A(N   1,C  10,C  12)          122.2095         0.439748   
    106. A(H  11,C  10,C  12)          118.8800         0.392532   
    107. A(N   1,C  10,H  11)          118.9105         0.393473   
    108. A(C  10,C  12,H  13)          120.4269         0.392398   
    109. A(H  13,C  12,C  14)          120.3919         0.394544   
    110. A(C  10,C  12,C  14)          119.1812         0.441137   
    111. A(H  15,C  14,C  16)          120.2359         0.392862   
    112. A(C  12,C  14,C  16)          119.4791         0.441543   
    113. A(C  12,C  14,H  15)          120.2850         0.394658   
    114. A(C  14,C  16,H  17)          120.8784         0.392683   
    115. A(H  17,C  16,C  18)          120.9260         0.390475   
    116. A(C  14,C  16,C  18)          118.1956         0.436923   
    117. A(C  16,C  18,C  19)          125.0106         0.412483   
    118. A(N   1,C  18,C  16)          122.5635         0.436203   
    119. A(N   1,C  18,C  19)          112.4259         0.414178   
    120. A(N   4,C  19,C  18)          130.7420         0.412186   
    121. A(N   2,C  19,C  18)          120.3574         0.419028   
    122. A(N   2,C  19,N   4)          108.8992         0.441058   
    123. A(N   4,C  20,C  21)          125.3816         0.404968   
    124. A(N   3,C  20,C  21)          123.9177         0.416756   
    125. A(N   3,C  20,N   4)          110.6977         0.438176   
    126. A(C  20,C  21,C  22)          119.5620         0.411488   
    127. A(N   6,C  21,C  22)          123.8982         0.440520   
    128. A(N   6,C  21,C  20)          116.5383         0.412286   
    129. A(H  23,C  22,C  24)          121.2802         0.392681   
    130. A(C  21,C  22,C  24)          117.5186         0.439451   
    131. A(C  21,C  22,H  23)          121.2011         0.392855   
    132. A(H  25,C  24,C  26)          120.3526         0.397256   
    133. A(C  22,C  24,C  26)          119.3490         0.444520   
    134. A(C  22,C  24,H  25)          120.2983         0.392687   
    135. A(H  27,C  26,C  28)          120.6156         0.398889   
    136. A(C  24,C  26,H  27)          120.5424         0.397201   
    137. A(C  24,C  26,C  28)          118.8417         0.451845   
    138. A(C  26,C  28,H  29)          117.8058         0.398960   
    139. A(N   6,C  28,H  29)          117.9234         0.394502   
    140. A(N   6,C  28,C  26)          124.2708         0.448586   
    141. A(N   7,C  30,N   8)          166.7240         0.513744   
    142. A(N   8,C  31,N   9)          172.8139         0.520828   
    143. A(C  43,N  34,C  51)          118.3607         0.439408   
    144. A(Fe  0,N  34,C  51)          116.6470         0.424245   
    145. A(Fe  0,N  34,C  43)          124.9637         0.425558   
    146. A(Fe  0,N  35,N  36)          135.9112         0.420584   
    147. A(N  36,N  35,C  52)          108.9435         0.422429   
    148. A(Fe  0,N  35,C  52)          114.9680         0.446600   
    149. A(N  35,N  36,C  53)          105.7440         0.423628   
    150. A(C  52,N  37,C  53)          105.7103         0.429633   
    151. A(N  38,N  37,C  53)          129.4804         0.400226   
    152. A(N  38,N  37,C  52)          124.6508         0.403939   
    153. A(H  65,N  38,H  66)           88.3826         0.323837   
    154. A(N  37,N  38,H  65)          114.2570         0.350738   
    155. A(N  37,N  38,H  66)          112.9033         0.347175   
    156. A(C  54,N  39,C  61)          116.0841         0.442374   
    157. A(Fe  0,N  40,C  63)          173.1861         0.515779   
    158. A(C  63,N  41,C  64)          122.5588         0.473432   
    159. A(H  44,C  43,C  45)          118.8885         0.392556   
    160. A(N  34,C  43,C  45)          122.2084         0.439744   
    161. A(N  34,C  43,H  44)          118.9031         0.393453   
    162. A(H  46,C  45,C  47)          120.3887         0.394555   
    163. A(C  43,C  45,C  47)          119.1869         0.441173   
    164. A(C  43,C  45,H  46)          120.4244         0.392418   
    165. A(H  48,C  47,C  49)          120.2310         0.392850   
    166. A(C  45,C  47,C  49)          119.4762         0.441531   
    167. A(C  45,C  47,H  48)          120.2929         0.394680   
    168. A(H  50,C  49,C  51)          120.9251         0.390474   
    169. A(C  47,C  49,C  51)          118.1949         0.436887   
    170. A(C  47,C  49,H  50)          120.8800         0.392669   
    171. A(C  49,C  51,C  52)          125.0135         0.412481   
    172. A(N  34,C  51,C  52)          112.4233         0.414194   
    173. A(N  34,C  51,C  49)          122.5631         0.436201   
    174. A(N  37,C  52,C  51)          130.7356         0.412164   
    175. A(N  35,C  52,C  51)          120.3608         0.419072   
    176. A(N  35,C  52,N  37)          108.9021         0.441064   
    177. A(N  37,C  53,C  54)          125.3829         0.405008   
    178. A(N  36,C  53,C  54)          123.9160         0.416787   
    179. A(N  36,C  53,N  37)          110.6982         0.438165   
    180. A(C  53,C  54,C  55)          119.5680         0.411510   
    181. A(N  39,C  54,C  55)          123.8879         0.440473   
    182. A(N  39,C  54,C  53)          116.5427         0.412302   
    183. A(H  56,C  55,C  57)          121.2802         0.392681   
    184. A(C  54,C  55,C  57)          117.5237         0.439431   
    185. A(C  54,C  55,H  56)          121.1961         0.392837   
    186. A(H  58,C  57,C  59)          120.3567         0.397247   
    187. A(C  55,C  57,C  59)          119.3489         0.444511   
    188. A(C  55,C  57,H  58)          120.2943         0.392687   
    189. A(H  60,C  59,C  61)          120.6173         0.398893   
    190. A(C  57,C  59,C  61)          118.8417         0.451836   
    191. A(C  57,C  59,H  60)          120.5408         0.397197   
    192. A(C  59,C  61,H  62)          117.8058         0.398968   
    193. A(N  39,C  61,H  62)          117.9234         0.394510   
    194. A(N  39,C  61,C  59)          124.2708         0.448586   
    195. A(N  40,C  63,N  41)          166.7267         0.513746   
    196. A(N  41,C  64,N  42)          172.8116         0.520812   
    197. D(C  18,N   1,Fe  0,N   7)    -91.5801         0.001944   
    198. D(C  10,N   1,Fe  0,N  35)     -1.0073         0.001944   
    199. D(C  18,N   1,Fe  0,N  35)    176.9989         0.001944   
    200. D(C  10,N   1,Fe  0,N   2)    178.9927         0.001944   
    201. D(C  18,N   1,Fe  0,N  40)     88.4219         0.001944   
    202. D(C  10,N   1,Fe  0,N   7)     90.4138         0.001944   
    203. D(C  18,N   1,Fe  0,N   2)     -3.0011         0.001944   
    204. D(C  10,N   1,Fe  0,N  40)    -89.5842         0.001944   
    205. D(C  19,N   2,Fe  0,N   7)     94.8707         0.002184   
    206. D(N   3,N   2,Fe  0,N  34)     -2.2227         0.002184   
    207. D(C  19,N   2,Fe  0,N  40)    -85.1274         0.002184   
    208. D(N   3,N   2,Fe  0,N  40)     89.3563         0.002184   
    209. D(C  19,N   2,Fe  0,N   1)      3.2967         0.002184   
    210. D(N   3,N   2,Fe  0,N   7)    -90.6456         0.002184   
    211. D(C  19,N   2,Fe  0,N  34)   -176.7064         0.002184   
    212. D(N   3,N   2,Fe  0,N   1)    177.7804         0.002184   
    213. D(C  20,N   3,N   2,C  19)      0.0376         0.023074   
    214. D(C  20,N   3,N   2,Fe  0)   -174.6760         0.023074   
    215. D(H  33,N   5,N   4,C  20)    -91.5656         0.018250   
    216. D(H  33,N   5,N   4,C  19)     83.1769         0.018250   
    217. D(H  32,N   5,N   4,C  19)   -177.7959         0.018250   
    218. D(H  32,N   5,N   4,C  20)      7.4616         0.018250   
    219. D(C  30,N   7,Fe  0,N  34)    -89.1353         0.002352   
    220. D(C  30,N   7,Fe  0,N  35)   -164.5636         0.002352   
    221. D(C  30,N   7,Fe  0,N   2)     15.4364         0.002352   
    222. D(C  30,N   7,Fe  0,N   1)     90.8666         0.002352   
    223. D(C  12,C  10,N   1,C  18)      0.4907         0.036985   
    224. D(H  11,C  10,N   1,C  18)   -179.4611         0.036985   
    225. D(H  11,C  10,N   1,Fe  0)     -1.4863         0.036985   
    226. D(C  12,C  10,N   1,Fe  0)    178.4655         0.036985   
    227. D(H  13,C  12,C  10,N   1)    178.8946         0.028307   
    228. D(C  14,C  12,C  10,H  11)    178.8248         0.028307   
    229. D(H  13,C  12,C  10,H  11)     -1.1537         0.028307   
    230. D(C  14,C  12,C  10,N   1)     -1.1270         0.028307   
    231. D(H  15,C  14,C  12,H  13)      0.8729         0.030257   
    232. D(C  16,C  14,C  12,H  13)   -179.1498         0.030257   
    233. D(C  16,C  14,C  12,C  10)      0.8717         0.030257   
    234. D(H  15,C  14,C  12,C  10)   -179.1055         0.030257   
    235. D(H  17,C  16,C  14,C  12)    179.9279         0.028616   
    236. D(H  17,C  16,C  14,H  15)     -0.0949         0.028616   
    237. D(C  18,C  16,C  14,C  12)     -0.0461         0.028616   
    238. D(C  18,C  16,C  14,H  15)    179.9311         0.028616   
    239. D(C  19,C  18,C  16,H  17)     -0.5196         0.026718   
    240. D(N   1,C  18,C  16,H  17)    179.4170         0.026718   
    241. D(C  19,C  18,C  16,C  14)    179.4544         0.026718   
    242. D(N   1,C  18,C  16,C  14)     -0.6090         0.026718   
    243. D(C  19,C  18,N   1,C  10)   -179.6659         0.035581   
    244. D(C  16,C  18,N   1,C  10)      0.3903         0.035581   
    245. D(C  16,C  18,N   1,Fe  0)   -177.7529         0.035581   
    246. D(C  19,C  18,N   1,Fe  0)      2.1909         0.035581   
    247. D(N   4,C  19,C  18,C  16)      1.2349         0.014732   
    248. D(N   4,C  19,C  18,N   1)   -178.7073         0.014732   
    249. D(N   2,C  19,C  18,C  16)   -179.2524         0.014732   
    250. D(C  18,C  19,N   4,N   5)      3.3625         0.033541   
    251. D(C  18,C  19,N   4,C  20)    179.1491         0.033541   
    252. D(N   2,C  19,N   4,C  20)     -0.4065         0.033541   
    253. D(N   2,C  19,N   4,N   5)   -176.1931         0.033541   
    254. D(C  18,C  19,N   2,N   3)   -179.3729         0.041064   
    255. D(N   2,C  19,C  18,N   1)      0.8054         0.014732   
    256. D(N   4,C  19,N   2,N   3)      0.2368         0.041064   
    257. D(C  18,C  19,N   2,Fe  0)     -3.4277         0.041064   
    258. D(N   4,C  19,N   2,Fe  0)    176.1820         0.041064   
    259. D(N   4,C  20,N   3,N   2)     -0.2983         0.038529   
    260. D(C  21,C  20,N   4,C  19)   -178.9456         0.029927   
    261. D(C  21,C  20,N   4,N   5)     -3.4370         0.029927   
    262. D(N   3,C  20,N   4,C  19)      0.4407         0.029927   
    263. D(N   3,C  20,N   4,N   5)    175.9493         0.029927   
    264. D(C  21,C  20,N   3,N   2)    179.0987         0.038529   
    265. D(C  22,C  21,C  20,N   4)    173.6350         0.013431   
    266. D(C  22,C  21,C  20,N   3)     -5.6732         0.013431   
    267. D(N   6,C  21,C  20,N   4)     -6.7965         0.013431   
    268. D(N   6,C  21,C  20,N   3)    173.8953         0.013431   
    269. D(C  22,C  21,N   6,C  28)     -2.0984         0.037268   
    270. D(C  20,C  21,N   6,C  28)    178.3538         0.037268   
    271. D(C  24,C  22,C  21,C  20)   -179.1637         0.028686   
    272. D(H  23,C  22,C  21,C  20)      0.8190         0.028686   
    273. D(C  24,C  22,C  21,N   6)      1.3014         0.028686   
    274. D(H  23,C  22,C  21,N   6)   -178.7159         0.028686   
    275. D(C  26,C  24,C  22,C  21)      0.6980         0.028531   
    276. D(H  25,C  24,C  22,H  23)      0.7986         0.028531   
    277. D(H  25,C  24,C  22,C  21)   -179.2188         0.028531   
    278. D(C  26,C  24,C  22,H  23)   -179.2846         0.028531   
    279. D(C  28,C  26,C  24,H  25)    178.1762         0.032875   
    280. D(C  28,C  26,C  24,C  22)     -1.7405         0.032875   
    281. D(H  27,C  26,C  24,H  25)     -1.9879         0.032875   
    282. D(H  27,C  26,C  24,C  22)    178.0954         0.032875   
    283. D(H  29,C  28,C  26,H  27)      1.1350         0.034638   
    284. D(H  29,C  28,C  26,C  24)   -179.0292         0.034638   
    285. D(N   6,C  28,C  26,H  27)   -178.9104         0.034638   
    286. D(N   6,C  28,C  26,C  24)      0.9254         0.034638   
    287. D(H  29,C  28,N   6,C  21)   -179.0825         0.038314   
    288. D(C  26,C  28,N   6,C  21)      0.9630         0.038314   
    289. D(N   7,C  30,N   8,C  31)   -162.9336         0.040969   
    290. D(N   8,C  30,N   7,Fe  0)    140.0802         0.141364   
    291. D(N   9,C  31,N   8,C  30)    -86.5003         0.050806   
    292. D(C  51,N  34,N   1,C  10)      1.9877         0.001500   
    293. D(C  43,N  34,N   1,C  18)     -1.9912         0.001500   
    294. D(C  43,N  34,N   1,C  10)   -179.9991         0.001500   
    295. D(C  51,N  34,Fe  0,N  40)     91.5722         0.001944   
    296. D(C  51,N  34,Fe  0,N  35)      2.9960         0.001944   
    297. D(C  51,N  34,Fe  0,N   7)    -88.4259         0.001944   
    298. D(C  51,N  34,Fe  0,N   2)   -177.0040         0.001944   
    299. D(C  43,N  34,Fe  0,N  40)    -90.4129         0.001944   
    300. D(C  43,N  34,Fe  0,N  35)   -178.9890         0.001944   
    301. D(C  43,N  34,Fe  0,N   7)     89.5891         0.001944   
    302. D(C  51,N  34,N   1,C  18)    179.9956         0.001500   
    303. D(C  43,N  34,Fe  0,N   2)      1.0110         0.001944   
    304. D(C  52,N  35,N   2,N   3)     -5.5189         0.001500   
    305. D(N  36,N  35,N   2,C  19)      5.5172         0.001500   
    306. D(N  36,N  35,N   2,N   3)   -179.9991         0.001500   
    307. D(C  52,N  35,Fe  0,N  40)    -94.8751         0.002184   
    308. D(C  52,N  35,Fe  0,N  34)     -3.2962         0.002184   
    309. D(C  52,N  35,Fe  0,N   7)     85.1268         0.002184   
    310. D(C  52,N  35,Fe  0,N   1)    176.7008         0.002184   
    311. D(N  36,N  35,Fe  0,N  40)     90.6446         0.002184   
    312. D(N  36,N  35,Fe  0,N  34)   -177.7764         0.002184   
    313. D(N  36,N  35,Fe  0,N   7)    -89.3535         0.002184   
    314. D(C  52,N  35,N   2,C  19)    179.9975         0.001500   
    315. D(N  36,N  35,Fe  0,N   1)      2.2205         0.002184   
    316. D(C  53,N  36,N  35,C  52)     -0.0388         0.023058   
    317. D(C  53,N  36,N  35,Fe  0)    174.6714         0.023058   
    318. D(H  66,N  38,N  37,C  53)     91.5685         0.018256   
    319. D(H  66,N  38,N  37,C  52)    -83.1823         0.018256   
    320. D(H  65,N  38,N  37,C  53)     -7.4510         0.018256   
    321. D(H  65,N  38,N  37,C  52)    177.7982         0.018256   
    322. D(C  63,N  40,Fe  0,N   2)    164.5631         0.002352   
    323. D(C  63,N  40,Fe  0,N   1)     89.1330         0.002352   
    324. D(C  63,N  40,N   7,C  30)    179.9878         0.001500   
    325. D(C  63,N  40,Fe  0,N  35)    -15.4369         0.002352   
    326. D(C  63,N  40,Fe  0,N  34)    -90.8652         0.002352   
    327. D(C  45,C  43,N  34,C  51)     -0.4843         0.036958   
    328. D(C  45,C  43,N  34,Fe  0)   -178.4681         0.036958   
    329. D(H  44,C  43,N  34,C  51)    179.4643         0.036958   
    330. D(H  44,C  43,N  34,Fe  0)      1.4805         0.036958   
    331. D(C  47,C  45,C  43,H  44)   -178.8287         0.028324   
    332. D(C  47,C  45,C  43,N  34)      1.1199         0.028324   
    333. D(H  46,C  45,C  43,H  44)      1.1558         0.028324   
    334. D(H  46,C  45,C  43,N  34)   -178.8956         0.028324   
    335. D(C  49,C  47,C  45,H  46)    179.1550         0.030267   
    336. D(C  49,C  47,C  45,C  43)     -0.8604         0.030267   
    337. D(H  48,C  47,C  45,H  46)     -0.8863         0.030267   
    338. D(H  48,C  47,C  45,C  43)    179.0982         0.030267   
    339. D(C  51,C  49,C  47,H  48)   -179.9273         0.028597   
    340. D(C  51,C  49,C  47,C  45)      0.0314         0.028597   
    341. D(H  50,C  49,C  47,H  48)      0.1149         0.028597   
    342. D(H  50,C  49,C  47,C  45)   -179.9264         0.028597   
    343. D(C  52,C  51,C  49,H  50)      0.5065         0.026710   
    344. D(C  52,C  51,C  49,C  47)   -179.4513         0.026710   
    345. D(N  34,C  51,C  49,H  50)   -179.4188         0.026710   
    346. D(N  34,C  51,C  49,C  47)      0.6234         0.026710   
    347. D(C  52,C  51,N  34,C  43)    179.6659         0.035590   
    348. D(C  52,C  51,N  34,Fe  0)     -2.1827         0.035590   
    349. D(C  49,C  51,N  34,C  43)     -0.4003         0.035590   
    350. D(C  49,C  51,N  34,Fe  0)    177.7511         0.035590   
    351. D(N  37,C  52,C  51,C  49)     -1.2314         0.014735   
    352. D(N  37,C  52,C  51,N  34)    178.7004         0.014735   
    353. D(N  35,C  52,C  51,C  49)    179.2545         0.014735   
    354. D(N  35,C  52,C  51,N  34)     -0.8137         0.014735   
    355. D(C  51,C  52,N  37,C  53)   -179.1495         0.033512   
    356. D(C  51,C  52,N  37,N  38)     -3.3562         0.033512   
    357. D(N  35,C  52,N  37,C  53)      0.4074         0.033512   
    358. D(N  35,C  52,N  37,N  38)    176.2006         0.033512   
    359. D(C  51,C  52,N  35,N  36)    179.3742         0.041108   
    360. D(C  51,C  52,N  35,Fe  0)      3.4317         0.041108   
    361. D(N  37,C  52,N  35,N  36)     -0.2367         0.041108   
    362. D(N  37,C  52,N  35,Fe  0)   -176.1792         0.041108   
    363. D(C  54,C  53,N  37,C  52)    178.9517         0.029927   
    364. D(C  54,C  53,N  37,N  38)      3.4358         0.029927   
    365. D(N  36,C  53,N  37,C  52)     -0.4424         0.029927   
    366. D(N  36,C  53,N  37,N  38)   -175.9583         0.029927   
    367. D(C  54,C  53,N  36,N  35)   -179.1046         0.038517   
    368. D(N  37,C  53,N  36,N  35)      0.3001         0.038517   
    369. D(C  55,C  54,C  53,N  37)   -173.6362         0.013445   
    370. D(C  55,C  54,C  53,N  36)      5.6808         0.013445   
    371. D(N  39,C  54,C  53,N  37)      6.7892         0.013445   
    372. D(N  39,C  54,C  53,N  36)   -173.8938         0.013445   
    373. D(C  55,C  54,N  39,C  61)      2.0954         0.037241   
    374. D(C  53,C  54,N  39,C  61)   -178.3503         0.037241   
    375. D(C  57,C  55,C  54,C  53)    179.1602         0.028670   
    376. D(C  57,C  55,C  54,N  39)     -1.2983         0.028670   
    377. D(H  56,C  55,C  54,C  53)     -0.8215         0.028670   
    378. D(H  56,C  55,C  54,N  39)    178.7200         0.028670   
    379. D(C  59,C  57,C  55,H  56)    179.2801         0.028531   
    380. D(C  59,C  57,C  55,C  54)     -0.7016         0.028531   
    381. D(H  58,C  57,C  55,H  56)     -0.7897         0.028531   
    382. D(H  58,C  57,C  55,C  54)    179.2286         0.028531   
    383. D(C  61,C  59,C  57,H  58)   -178.1853         0.032866   
    384. D(C  61,C  59,C  57,C  55)      1.7449         0.032866   
    385. D(H  60,C  59,C  57,H  58)      1.9676         0.032866   
    386. D(H  60,C  59,C  57,C  55)   -178.1023         0.032866   
    387. D(H  62,C  61,C  59,H  60)     -1.1349         0.034638   
    388. D(H  62,C  61,C  59,C  57)    179.0181         0.034638   
    389. D(N  39,C  61,C  59,H  60)    178.9171         0.034638   
    390. D(N  39,C  61,C  59,C  57)     -0.9299         0.034638   
    391. D(H  62,C  61,N  39,C  54)    179.0926         0.038314   
    392. D(C  59,C  61,N  39,C  54)     -0.9594         0.038314   
    393. D(N  40,C  63,N  41,C  64)    162.9339         0.041001   
    394. D(N  41,C  63,N  40,Fe  0)   -140.0821         0.141250   
    395. D(N  42,C  64,N  41,C  63)     86.4417         0.050827   
    -----------------------------------------------------------------

Number of atoms                         .... 67
Number of degrees of freedom            .... 395


         *************************************************************
         *                GEOMETRY OPTIMIZATION CYCLE   1            *
         *************************************************************
---------------------------------
CARTESIAN COORDINATES (ANGSTROEM)
---------------------------------
  Fe     6.176500   -2.301200   15.568900
  N      6.856800   -1.198600   17.346900
  N      6.615300   -0.335000   14.846500
  N      6.598100    0.296200   13.621700
  N      7.424000    1.667300   15.150000
  N      8.053100    2.766700   15.794700
  N      7.676800    3.737000   13.166700
  N      4.191600   -1.695800   15.895900
  N      1.849100   -1.047100   16.085800
  N      0.877400    1.170300   15.878800
  C      6.931600   -1.707900   18.584600
  H      6.661600   -2.586200   18.726300
  C      7.398300   -0.970400   19.658900
  H      7.425300   -1.343800   20.510500
  C      7.822300    0.321800   19.451800
  H      8.150300    0.826900   20.160200
  C      7.757400    0.863900   18.181400
  H      8.038000    1.736200   18.019500
  C      7.260700    0.069800   17.152300
  C      7.115300    0.496300   15.752700
  C      7.096000    1.503600   13.833000
  C      7.278700    2.521200   12.769600
  C      7.028600    2.183800   11.452500
  H      6.736300    1.331800   11.220500
  C      7.229600    3.160000   10.493500
  H      7.062800    2.978200    9.596700
  C      7.673400    4.392900   10.876500
  H      7.839400    5.053500   10.242800
  C      7.871400    4.636700   12.198300
  H      8.160700    5.485700   12.444300
  C      3.129500   -1.255400   15.995500
  C      1.326700    0.100700   15.903700
  H      8.170900    3.526100   15.242000
  H      9.011500    2.680100   15.833600
  N      5.496100   -3.403800   13.791000
  N      5.737700   -4.267400   16.291300
  N      5.754900   -4.898600   17.516200
  N      4.928900   -6.269700   15.987900
  N      4.299900   -7.369100   15.343200
  N      4.676100   -8.339400   17.971200
  N      8.161300   -2.906600   15.242000
  N     10.503800   -3.555300   15.052100
  N     11.475600   -5.772700   15.259100
  C      5.421300   -2.894500   12.553200
  H      5.691300   -2.016200   12.411600
  C      4.954600   -3.632000   11.479000
  H      4.927600   -3.258600   10.627400
  C      4.530700   -4.924200   11.686000
  H      4.202600   -5.429300   10.977700
  C      4.595500   -5.466300   12.956500
  H      4.315000   -6.338600   13.118400
  C      5.092300   -4.672200   13.985600
  C      5.237700   -5.098600   15.385200
  C      5.256900   -6.106000   17.304900
  C      5.074300   -7.123500   18.368200
  C      5.324400   -6.786200   19.685400
  H      5.616700   -5.934200   19.917400
  C      5.123400   -7.762400   20.644400
  H      5.290100   -7.580500   21.541200
  C      4.679500   -8.995300   20.261400
  H      4.513600   -9.655900   20.895100
  C      4.481500   -9.239100   18.939600
  H      4.192300  -10.088100   18.693600
  C      9.223500   -3.347000   15.142400
  C     11.026300   -4.703000   15.234200
  H      4.182000   -8.128500   15.895900
  H      3.341500   -7.282500   15.304300

----------------------------
CARTESIAN COORDINATES (A.U.)
----------------------------
  NO LB      ZA    FRAG     MASS         X           Y           Z
   0 Fe   26.0000    0    55.850   11.671893   -4.348638   29.420957
   1 N     7.0000    0    14.007   12.957474   -2.265026   32.780890
   2 N     7.0000    0    14.007   12.501105   -0.633058   28.055819
   3 N     7.0000    0    14.007   12.468602    0.559737   25.741282
   4 N     7.0000    0    14.007   14.029327    3.150740   28.629351
   5 N     7.0000    0    14.007   15.218154    5.228305   29.847657
   6 N     7.0000    0    14.007   14.507050    7.061907   24.881457
   7 N     7.0000    0    14.007    7.920976   -3.204598   30.038898
   8 N     7.0000    0    14.007    3.494293   -1.978732   30.397757
   9 N     7.0000    0    14.007    1.658046    2.211546   30.006583
  10 C     6.0000    0    12.011   13.098826   -3.227463   35.119804
  11 H     1.0000    0     1.008   12.588600   -4.887210   35.387579
  12 C     6.0000    0    12.011   13.980761   -1.833790   37.149937
  13 H     1.0000    0     1.008   14.031783   -2.539414   38.759228
  14 C     6.0000    0    12.011   14.782005    0.608114   36.758575
  15 H     1.0000    0     1.008   15.401835    1.562615   38.097257
  16 C     6.0000    0    12.011   14.659362    1.632534   34.357867
  17 H     1.0000    0     1.008   15.189619    3.280943   34.051920
  18 C     6.0000    0    12.011   13.720735    0.131903   32.413150
  19 C     6.0000    0    12.011   13.445968    0.937871   29.768289
  20 C     6.0000    0    12.011   13.409497    2.841392   26.140582
  21 C     6.0000    0    12.011   13.754750    4.764378   24.131047
  22 C     6.0000    0    12.011   13.282129    4.126784   21.642089
  23 H     1.0000    0     1.008   12.729762    2.516737   21.203672
  24 C     6.0000    0    12.011   13.661964    5.971535   19.829841
  25 H     1.0000    0     1.008   13.346758    5.627982   18.135135
  26 C     6.0000    0    12.011   14.500625    8.301378   20.553606
  27 H     1.0000    0     1.008   14.814319    9.549731   19.356087
  28 C     6.0000    0    12.011   14.874790    8.762093   23.051446
  29 H     1.0000    0     1.008   15.421488   10.366471   23.516319
  30 C     6.0000    0    12.011    5.913898   -2.372362   30.227114
  31 C     6.0000    0    12.011    2.507100    0.190295   30.053638
  32 H     1.0000    0     1.008   15.440763    6.663363   28.803206
  33 H     1.0000    0     1.008   17.029267    5.064655   29.921168
  34 N     7.0000    0    14.007   10.386124   -6.432250   26.061213
  35 N     7.0000    0    14.007   10.842682   -8.064217   30.786095
  36 N     7.0000    0    14.007   10.875185   -9.257012   33.100821
  37 N     7.0000    0    14.007    9.314271  -11.848016   30.212752
  38 N     7.0000    0    14.007    8.125633  -13.925581   28.994446
  39 N     7.0000    0    14.007    8.836548  -15.759182   33.960646
  40 N     7.0000    0    14.007   15.422622   -5.492678   28.803206
  41 N     7.0000    0    14.007   19.849305   -6.718543   28.444347
  42 N     7.0000    0    14.007   21.685741  -10.908822   28.835520
  43 C     6.0000    0    12.011   10.244772   -5.469812   23.722110
  44 H     1.0000    0     1.008   10.754998   -3.810066   23.454525
  45 C     6.0000    0    12.011    9.362837   -6.863485   21.692166
  46 H     1.0000    0     1.008    9.311814   -6.157862   20.082876
  47 C     6.0000    0    12.011    8.561782   -9.305389   22.083340
  48 H     1.0000    0     1.008    7.941763  -10.259890   20.744847
  49 C     6.0000    0    12.011    8.684236  -10.329810   24.484237
  50 H     1.0000    0     1.008    8.154168  -11.978218   24.790183
  51 C     6.0000    0    12.011    9.623052   -8.829178   26.428954
  52 C     6.0000    0    12.011    9.897819   -9.634958   29.073815
  53 C     6.0000    0    12.011    9.934101  -11.538668   32.701522
  54 C     6.0000    0    12.011    9.589037  -13.461464   34.710868
  55 C     6.0000    0    12.011   10.061658  -12.824059   37.200015
  56 H     1.0000    0     1.008   10.614025  -11.214013   37.638431
  57 C     6.0000    0    12.011    9.681823  -14.668810   39.012262
  58 H     1.0000    0     1.008    9.996840  -14.325069   40.706969
  59 C     6.0000    0    12.011    8.842973  -16.998653   38.288497
  60 H     1.0000    0     1.008    8.529468  -18.247007   39.486017
  61 C     6.0000    0    12.011    8.468808  -17.459369   35.790657
  62 H     1.0000    0     1.008    7.922299  -19.063746   35.325784
  63 C     6.0000    0    12.011   17.429889   -6.324913   28.614989
  64 C     6.0000    0    12.011   20.836687   -8.887382   28.788466
  65 H     1.0000    0     1.008    7.902835  -15.360639   30.038898
  66 H     1.0000    0     1.008    6.314520  -13.761931   28.920936

--------------------------------
INTERNAL COORDINATES (ANGSTROEM)
--------------------------------
 Fe     0   0   0     0.000000000000     0.00000000     0.00000000
 N      1   0   0     2.199958829160     0.00000000     0.00000000
 N      1   2   0     2.140175142366    75.46031350     0.00000000
 N      3   1   2     1.377985602247   135.91299450   177.78035516
 N      3   1   2     2.180668069652   150.76463725     7.88593808
 N      5   3   1     1.421297034402   159.64023484     1.93280016
 N      6   5   3     2.826564660502    77.57694163   174.35063001
 N      1   2   3     2.100777515588    91.25728186   271.42108720
 N      8   1   2     2.438068897714   175.27698044   163.53020705
 N      9   8   1     2.429796833071   128.34619191   261.74311959
 C      2   1   3     1.340478578717   124.96412864   178.99272424
 H     11   2   1     0.929725647705   118.91052468   358.51370505
 C     11   2   1     1.384137142772   122.20947341   178.46546716
 H     13  11   2     0.930257555734   120.42689106   178.89456480
 C     13  11   2     1.375662476773   119.18119753   358.87299455
 H     15  13  11     0.929806737984   120.28501663   180.89451120
 C     15  13  11     1.382751091122   119.47911168     0.87174987
 H     17  15  13     0.930513438914   120.87837787   179.92787388
 C      2   1   3     1.345304028835   116.64587395   356.99885850
 C      3   1   2     1.327500708098   114.96816622     3.29666238
 C      4   3   1     1.323014308313   105.74624887   185.32399238
 C      7   6   5     1.339530387860    90.20721135   352.09757196
 C     22   7   6     1.382440298892   123.89821639   186.85361238
 H     23  22   7     0.930143693200   121.20113618   181.28405602
 C     23  22   7     1.383129943281   117.51864592     1.30143402
 H     25  23  22     0.930120271793   120.29834706   180.78124855
 C     25  23  22     1.365170264106   119.34900311     0.69797919
 H     27  25  23     0.930335450254   120.54242236   178.09538198
 C      7   6   5     1.336086752423   152.33218473   189.61495209
 H     29   7   6     0.930059938929   117.92337667   341.33826872
 C      8   1   2     1.154092167030   173.18282423    90.86659185
 C     10   9   8     1.160402800755     3.76118179    93.87862511
 H      6   5   3     0.946595209158   114.25412886   175.89395377
 H      6   5   3     0.963090509765   112.90693876    76.86675902
 N      1   2   3     2.199908936752   179.99655360   238.57470177
 N      1   2   3     2.140175142366   104.53968650   180.00000000
 N     36   1   2     1.378074486376   135.91119642     2.22054995
 N     36   1   2     2.180691241327   150.76646839   172.10756012
 N     38  36   1     1.421252774843   159.63902181   358.09187637
 N     39  38  36     2.826551349259    77.57795732   185.63149283
 N      1   2   3     2.100667467735    88.74129101    91.42304527
 N     41   1   2     2.438068897714   175.27890378    16.45200394
 N     42  41   1     2.429836825797   128.34833470    98.27441374
 C     35   1  41     1.340570911963   124.96373565   269.58714913
 H     44  35   1     0.929710411903   118.90310777     1.48046426
 C     44  35   1     1.384059529067   122.20841457   181.53186787
 H     46  44  35     0.930257555734   120.42438321   181.10443160
 C     46  44  35     1.375616607198   119.18686671     1.11991732
 H     48  46  44     0.929765836111   120.29285106   179.09822557
 C     48  46  44     1.382838276878   119.47616151   359.13955869
 H     50  48  46     0.930483288404   120.87995988   180.07358204
 C     35   1  41     1.345274009264   116.64699010    91.57217968
 C     36   1   2     1.327369824126   114.96802963   176.70079163
 C     37  36   1     1.323051945314   105.74400132   174.67144730
 C     40  39  38     1.339621233782    90.20172031     7.89513848
 C     55  40  39     1.382511171745   123.88786129   173.14688233
 H     56  55  40     0.930143693200   121.19612779   178.72002942
 C     56  55  40     1.383129943281   117.52365406   358.70174852
 H     58  56  55     0.930121895237   120.29429003   179.22858397
 C     58  56  55     1.365202776147   119.34893556   359.29837275
 H     60  58  56     0.930317612431   120.54080983   181.89774655
 C     40  39  38     1.336086752423   152.33333521   170.38489117
 H     62  40  39     0.930028838263   117.92337662    18.66481086
 C     41   1   2     1.154184196738   173.18610200    89.13297494
 C     43  42  41     1.160494976292     3.76215020   266.06138208
 H     39  38  36     0.946607658959   114.25698111   184.09466846
 H     39  38  36     0.963090509765   112.90333758   283.11416665

---------------------------
INTERNAL COORDINATES (A.U.)
---------------------------
 Fe     0   0   0     0.000000000000     0.00000000     0.00000000
 N      1   0   0     4.157319693015     0.00000000     0.00000000
 N      1   2   0     4.044344897697    75.46031350     0.00000000
 N      3   1   2     2.604015404733   135.91299450   177.78035516
 N      3   1   2     4.120865440629   150.76463725     7.88593808
 N      5   3   1     2.685862149974   159.64023484     1.93280016
 N      6   5   3     5.341433108169    77.57694163   174.35063001
 N      1   2   3     3.969894172761    91.25728186   271.42108720
 N      8   1   2     4.607282512311   175.27698044   163.53020705
 N      9   8   1     4.591650575573   128.34619191   261.74311959
 C      2   1   3     2.533137402164   124.96412864   178.99272424
 H     11   2   1     1.756926853845   118.91052468   358.51370505
 C     11   2   1     2.615640131627   122.20947341   178.46546716
 H     13  11   2     1.757932014348   120.42689106   178.89456480
 C     13  11   2     2.599625333812   119.18119753   358.87299455
 H     15  13  11     1.757080092264   120.28501663   180.89451120
 C     15  13  11     2.613020873602   119.47911168     0.87174987
 H     17  15  13     1.758415563481   120.87837787   179.92787388
 C      2   1   3     2.542256181359   116.64587395   356.99885850
 C      3   1   2     2.508612780891   114.96816622     3.29666238
 C      4   3   1     2.500134713970   105.74624887   185.32399238
 C      7   6   5     2.531345581120    90.20721135   352.09757196
 C     22   7   6     2.612433561402   123.89821639   186.85361238
 H     23  22   7     1.757716845342   121.20113618   181.28405602
 C     23  22   7     2.613736800427   117.51864592     1.30143402
 H     25  23  22     1.757672585297   120.29834706   180.78124855
 C     25  23  22     2.579797925334   119.34900311     0.69797919
 H     27  25  23     1.758079213659   120.54242236   178.09538198
 C      7   6   5     2.524838053240   152.33218473   189.61495209
 H     29   7   6     1.757558572707   117.92337667   341.33826872
 C      8   1   2     2.180918128990   173.18282423    90.86659185
 C     10   9   8     2.192843498462     3.76118179    93.87862511
 H      6   5   3     1.788805704990   114.25412886   175.89395377
 H      6   5   3     1.819977305635   112.90693876    76.86675902
 N      1   2   3     4.157225410027   179.99655360   238.57470177
 N      1   2   3     4.044344897697   104.53968650   180.00000000
 N     36   1   2     2.604183371395   135.91119642     2.22054995
 N     36   1   2     4.120909228749   150.76646839   172.10756012
 N     38  36   1     2.685778511530   159.63902181   358.09187637
 N     39  38  36     5.341407953566    77.57795732   185.63149283
 N      1   2   3     3.969686212457    88.74129101    91.42304527
 N     41   1   2     4.607282512311   175.27890378    16.45200394
 N     42  41   1     4.591726150873   128.34833470    98.27441374
 C     35   1  41     2.533311886710   124.96373565   269.58714913
 H     44  35   1     1.756898062351   118.90310777     1.48046426
 C     44  35   1     2.615493462980   122.20841457   181.53186787
 H     46  44  35     1.757932014348   120.42438321   181.10443160
 C     46  44  35     2.599538652879   119.18686671     1.11991732
 H     48  46  44     1.757002798927   120.29285106   179.09822557
 C     48  46  44     2.613185630804   119.47616151   359.13955869
 H     50  48  46     1.758358587275   120.87995988   180.07358204
 C     35   1  41     2.542199452590   116.64699010    91.57217968
 C     36   1   2     2.508365446029   114.96802963   176.70079163
 C     37  36   1     2.500205837596   105.74400132   174.67144730
 C     40  39  38     2.531517255034    90.20172031     7.89513848
 C     55  40  39     2.612567491685   123.88786129   173.14688233
 H     56  55  40     1.757716845342   121.19612779   178.72002942
 C     56  55  40     2.613736800427   117.52365406   358.70174852
 H     58  56  55     1.757675653162   120.29429003   179.22858397
 C     58  56  55     2.579859364187   119.34893556   359.29837275
 H     60  58  56     1.758045505059   120.54080983   181.89774655
 C     40  39  38     2.524838053240   152.33333521   170.38489117
 H     62  40  39     1.757499800965   117.92337662    18.66481086
 C     41   1   2     2.181092039935   173.18610200    89.13297494
 C     43  42  41     2.193017684984     3.76215020   266.06138208
 H     39  38  36     1.788829231705   114.25698111   184.09466846
 H     39  38  36     1.819977305635   112.90333758   283.11416665

---------------------
BASIS SET INFORMATION
---------------------
There are 4 groups of distinct atoms

 Group   1 Type Fe  : 17s11p7d1f contracted to 6s4p4d1f pattern {842111/6311/4111/1}
 Group   2 Type N   : 11s6p2d1f contracted to 5s3p2d1f pattern {62111/411/11/1}
 Group   3 Type C   : 11s6p2d1f contracted to 5s3p2d1f pattern {62111/411/11/1}
 Group   4 Type H   : 5s1p contracted to 3s1p pattern {311/1}

Atom   0Fe   basis set group =>   1
Atom   1N    basis set group =>   2
Atom   2N    basis set group =>   2
Atom   3N    basis set group =>   2
Atom   4N    basis set group =>   2
Atom   5N    basis set group =>   2
Atom   6N    basis set group =>   2
Atom   7N    basis set group =>   2
Atom   8N    basis set group =>   2
Atom   9N    basis set group =>   2
Atom  10C    basis set group =>   3
Atom  11H    basis set group =>   4
Atom  12C    basis set group =>   3
Atom  13H    basis set group =>   4
Atom  14C    basis set group =>   3
Atom  15H    basis set group =>   4
Atom  16C    basis set group =>   3
Atom  17H    basis set group =>   4
Atom  18C    basis set group =>   3
Atom  19C    basis set group =>   3
Atom  20C    basis set group =>   3
Atom  21C    basis set group =>   3
Atom  22C    basis set group =>   3
Atom  23H    basis set group =>   4
Atom  24C    basis set group =>   3
Atom  25H    basis set group =>   4
Atom  26C    basis set group =>   3
Atom  27H    basis set group =>   4
Atom  28C    basis set group =>   3
Atom  29H    basis set group =>   4
Atom  30C    basis set group =>   3
Atom  31C    basis set group =>   3
Atom  32H    basis set group =>   4
Atom  33H    basis set group =>   4
Atom  34N    basis set group =>   2
Atom  35N    basis set group =>   2
Atom  36N    basis set group =>   2
Atom  37N    basis set group =>   2
Atom  38N    basis set group =>   2
Atom  39N    basis set group =>   2
Atom  40N    basis set group =>   2
Atom  41N    basis set group =>   2
Atom  42N    basis set group =>   2
Atom  43C    basis set group =>   3
Atom  44H    basis set group =>   4
Atom  45C    basis set group =>   3
Atom  46H    basis set group =>   4
Atom  47C    basis set group =>   3
Atom  48H    basis set group =>   4
Atom  49C    basis set group =>   3
Atom  50H    basis set group =>   4
Atom  51C    basis set group =>   3
Atom  52C    basis set group =>   3
Atom  53C    basis set group =>   3
Atom  54C    basis set group =>   3
Atom  55C    basis set group =>   3
Atom  56H    basis set group =>   4
Atom  57C    basis set group =>   3
Atom  58H    basis set group =>   4
Atom  59C    basis set group =>   3
Atom  60H    basis set group =>   4
Atom  61C    basis set group =>   3
Atom  62H    basis set group =>   4
Atom  63C    basis set group =>   3
Atom  64C    basis set group =>   3
Atom  65H    basis set group =>   4
Atom  66H    basis set group =>   4
---------------------------------
AUXILIARY/J BASIS SET INFORMATION
---------------------------------
There are 4 groups of distinct atoms

 Group   1 Type Fe  : 19s5p5d3f3g contracted to 8s5p5d2f3g pattern {121111111/11111/11111/21/111}
 Group   2 Type N   : 12s5p4d2f1g contracted to 6s4p3d1f1g pattern {711111/2111/211/2/1}
 Group   3 Type C   : 12s5p4d2f1g contracted to 6s4p3d1f1g pattern {711111/2111/211/2/1}
 Group   4 Type H   : 5s2p1d contracted to 3s1p1d pattern {311/2/1}

Atom   0Fe   basis set group =>   1
Atom   1N    basis set group =>   2
Atom   2N    basis set group =>   2
Atom   3N    basis set group =>   2
Atom   4N    basis set group =>   2
Atom   5N    basis set group =>   2
Atom   6N    basis set group =>   2
Atom   7N    basis set group =>   2
Atom   8N    basis set group =>   2
Atom   9N    basis set group =>   2
Atom  10C    basis set group =>   3
Atom  11H    basis set group =>   4
Atom  12C    basis set group =>   3
Atom  13H    basis set group =>   4
Atom  14C    basis set group =>   3
Atom  15H    basis set group =>   4
Atom  16C    basis set group =>   3
Atom  17H    basis set group =>   4
Atom  18C    basis set group =>   3
Atom  19C    basis set group =>   3
Atom  20C    basis set group =>   3
Atom  21C    basis set group =>   3
Atom  22C    basis set group =>   3
Atom  23H    basis set group =>   4
Atom  24C    basis set group =>   3
Atom  25H    basis set group =>   4
Atom  26C    basis set group =>   3
Atom  27H    basis set group =>   4
Atom  28C    basis set group =>   3
Atom  29H    basis set group =>   4
Atom  30C    basis set group =>   3
Atom  31C    basis set group =>   3
Atom  32H    basis set group =>   4
Atom  33H    basis set group =>   4
Atom  34N    basis set group =>   2
Atom  35N    basis set group =>   2
Atom  36N    basis set group =>   2
Atom  37N    basis set group =>   2
Atom  38N    basis set group =>   2
Atom  39N    basis set group =>   2
Atom  40N    basis set group =>   2
Atom  41N    basis set group =>   2
Atom  42N    basis set group =>   2
Atom  43C    basis set group =>   3
Atom  44H    basis set group =>   4
Atom  45C    basis set group =>   3
Atom  46H    basis set group =>   4
Atom  47C    basis set group =>   3
Atom  48H    basis set group =>   4
Atom  49C    basis set group =>   3
Atom  50H    basis set group =>   4
Atom  51C    basis set group =>   3
Atom  52C    basis set group =>   3
Atom  53C    basis set group =>   3
Atom  54C    basis set group =>   3
Atom  55C    basis set group =>   3
Atom  56H    basis set group =>   4
Atom  57C    basis set group =>   3
Atom  58H    basis set group =>   4
Atom  59C    basis set group =>   3
Atom  60H    basis set group =>   4
Atom  61C    basis set group =>   3
Atom  62H    basis set group =>   4
Atom  63C    basis set group =>   3
Atom  64C    basis set group =>   3
Atom  65H    basis set group =>   4
Atom  66H    basis set group =>   4


           ************************************************************
           *        Program running with 16 parallel MPI-processes    *
           *              working on a common directory               *
           ************************************************************
------------------------------------------------------------------------------
                             ORCA STARTUP CALCULATIONS
                           -- RI-GTO INTEGRALS CHOSEN --
------------------------------------------------------------------------------
------------------------------------------------------------------------------
                   ___                                                        
                  /   \      - P O W E R E D   B Y -                         
                 /     \                                                     
                 |  |  |   _    _      __       _____    __    __             
                 |  |  |  | |  | |    /  \     |  _  \  |  |  /  |          
                  \  \/   | |  | |   /    \    | | | |  |  | /  /          
                 / \  \   | |__| |  /  /\  \   | |_| |  |  |/  /          
                |  |  |   |  __  | /  /__\  \  |    /   |      \           
                |  |  |   | |  | | |   __   |  |    \   |  |\   \          
                \     /   | |  | | |  |  |  |  | |\  \  |  | \   \       
                 \___/    |_|  |_| |__|  |__|  |_| \__\ |__|  \__/        
                                                                              
                      - O R C A' S   B I G   F R I E N D -                    
                                      &                                       
                       - I N T E G R A L  F E E D E R -                       
                                                                              
 v1 FN, 2020, v2 2021, v3 2022-2024                                           
------------------------------------------------------------------------------


----------------------
SHARK INTEGRAL PACKAGE
----------------------

Number of atoms                             ...     67
Number of basis functions                   ...   1591
Number of shells                            ...    601
Maximum angular momentum                    ...      3
Integral batch strategy                     ... SHARK/LIBINT Hybrid
RI-J (if used) integral strategy            ... SPLIT-RIJ (Revised 2003 algorithm where possible)
Printlevel                                  ...      1
Contraction scheme used                     ... SEGMENTED contraction
Prescreening option                         ... SCHWARTZ
   Thresh                                   ... 2.500e-11
   Tcut                                     ... 2.500e-12
   Tpresel                                  ... 2.500e-12 
Coulomb Range Separation                    ... NOT USED
Exchange Range Separation                   ... NOT USED
Multipole approximations                    ... NOT USED
Finite Nucleus Model                        ... NOT USED
CABS basis                                  ... NOT available
Auxiliary Coulomb fitting basis             ... AVAILABLE
   # of basis functions in Aux-J            ...   2563
   # of shells in Aux-J                     ...    813
   Maximum angular momentum in Aux-J        ...      4
Auxiliary J/K fitting basis                 ... NOT available
Auxiliary Correlation fitting basis         ... NOT available
Auxiliary 'external' fitting basis          ... NOT available

Checking pre-screening integrals            ... done (  0.0 sec) Dimension = 601
Check shell pair data                       ... done (  0.0 sec)
Shell pair information
Shell pair cut-off parameter TPreSel        ...   2.5e-12
Total number of shell pairs                 ...    180901
Shell pairs after pre-screening             ...     87727
Total number of primitive shell pairs       ...    580557
Primitive shell pairs kept                  ...    170133
          la=0 lb=0:  20212 shell pairs
          la=1 lb=0:  25611 shell pairs
          la=1 lb=1:   8069 shell pairs
          la=2 lb=0:  12514 shell pairs
          la=2 lb=1:   8248 shell pairs
          la=2 lb=2:   1993 shell pairs
          la=3 lb=0:   5442 shell pairs
          la=3 lb=1:   3670 shell pairs
          la=3 lb=2:   1638 shell pairs
          la=3 lb=3:    330 shell pairs

Calculating one electron integrals          ... done (  0.1 sec)
done (  0.5 sec)
Calculating Nuclear repulsion               ... done (  0.0 sec) ENN=   6204.880358453194 Eh

Diagonalization of the overlap matrix:
Smallest eigenvalue                        ... 8.816e-06
Time for diagonalization                   ...    0.283 sec
Threshold for overlap eigenvalues          ... 1.000e-07
Number of eigenvalues below threshold      ... 0
Time for construction of square roots      ...    0.349 sec
Total time needed                          ...    0.670 sec

-------------------
DFT GRID GENERATION
-------------------

General Integration Accuracy     IntAcc      ... 4.959
Radial Grid Type                 RadialGrid  ... OptM3 with GC (2021)
Angular Grid (max. ang.)         AngularGrid ... 6 (Lebedev-590)
Angular grid pruning method      GridPruning ... 4 (adaptive)
Weight generation scheme         WeightScheme... mBecke (2022)
Basis function cutoff            BFCut       ... 1.0000e-11
Integration weight cutoff        WCut        ... 1.0000e-14
Partially contracted basis set               ... off
Rotationally invariant grid construction     ... off
Angular grids for H and He will be reduced by one unit
Core-polarized basis detected: some atoms will have their core
                               angular grid increased.

Total number of grid points                  ...   848619
Total number of batches                      ...    13298
Average number of points per batch           ...       63
Average number of grid points per atom       ...    12666

--------------------
COSX GRID GENERATION
--------------------

GRIDX 1
-------
General Integration Accuracy     IntAcc      ... 4.020
Radial Grid Type                 RadialGrid  ... OptM3 with GC (2021)
Angular Grid (max. ang.)         AngularGrid ... 2 (Lebedev-110)
Angular grid pruning method      GridPruning ... 4 (adaptive)
Weight generation scheme         WeightScheme... mBecke (2022)
Basis function cutoff            BFCut       ... 1.0000e-11
Integration weight cutoff        WCut        ... 1.0000e-14
Partially contracted basis set               ... on
Rotationally invariant grid construction     ... off
Angular grids for H and He will be reduced by one unit
Core-polarized basis detected: some atoms will have their core
                               angular grid increased.

Total number of grid points                  ...   100026
Total number of batches                      ...      819
Average number of points per batch           ...      122
Average number of grid points per atom       ...     1493
UseSFitting                                  ... on

GRIDX 2
-------
General Integration Accuracy     IntAcc      ... 4.338
Radial Grid Type                 RadialGrid  ... OptM3 with GC (2021)
Angular Grid (max. ang.)         AngularGrid ... 3 (Lebedev-194)
Angular grid pruning method      GridPruning ... 4 (adaptive)
Weight generation scheme         WeightScheme... mBecke (2022)
Basis function cutoff            BFCut       ... 1.0000e-11
Integration weight cutoff        WCut        ... 1.0000e-14
Partially contracted basis set               ... on
Rotationally invariant grid construction     ... off
Angular grids for H and He will be reduced by one unit
Core-polarized basis detected: some atoms will have their core
                               angular grid increased.

Total number of grid points                  ...   213316
Total number of batches                      ...     1703
Average number of points per batch           ...      125
Average number of grid points per atom       ...     3184
UseSFitting                                  ... on

GRIDX 3
-------
General Integration Accuracy     IntAcc      ... 4.871
Radial Grid Type                 RadialGrid  ... OptM3 with GC (2021)
Angular Grid (max. ang.)         AngularGrid ... 4 (Lebedev-302)
Angular grid pruning method      GridPruning ... 4 (adaptive)
Weight generation scheme         WeightScheme... mBecke (2022)
Basis function cutoff            BFCut       ... 1.0000e-11
Integration weight cutoff        WCut        ... 1.0000e-14
Partially contracted basis set               ... on
Rotationally invariant grid construction     ... off
Angular grids for H and He will be reduced by one unit
Core-polarized basis detected: some atoms will have their core
                               angular grid increased.

Total number of grid points                  ...   388812
Total number of batches                      ...     3072
Average number of points per batch           ...      126
Average number of grid points per atom       ...     5803
UseSFitting                                  ... on
Initializing property integral containers    ... done (  0.0 sec)

SHARK setup successfully completed in  18.0 seconds

Maximum memory used throughout the entire STARTUP-calculation: 275.0 MB


           ************************************************************
           *        Program running with 16 parallel MPI-processes    *
           *              working on a common directory               *
           ************************************************************
-------------------------------------------------------------------------------
                                 ORCA GUESS
                   Start orbitals & Density for SCF / CASSCF
-------------------------------------------------------------------------------

------------
SCF SETTINGS
------------
Hamiltonian:
 Density Functional     Method          .... DFT(GTOs)
 Exchange Functional    Exchange        .... PBE
   PBE kappa parameter   XKappa         ....  0.804000
   PBE mue parameter    XMuePBE         ....  0.219520
 Correlation Functional Correlation     .... PBE
   PBE beta parameter  CBetaPBE         ....  0.066725
 LDA part of GGA corr.  LDAOpt          .... PW91-LDA
 Gradients option       PostSCFGGA      .... off
 Hybrid DFT is turned on
   Fraction HF Exchange ScalHFX         ....  0.250000
   Scaling of DF-GGA-X  ScalDFX         ....  0.750000
   Scaling of DF-GGA-C  ScalDFC         ....  1.000000
   Scaling of DF-LDA-C  ScalLDAC        ....  1.000000
   Perturbative correction              ....  0.000000
   NL short-range parameter             ....  6.900000
 RI-approximation to the Coulomb term is turned on
   Number of AuxJ basis functions       .... 2563
   RIJ-COSX (HFX calculated with COS-X)).... on


General Settings:
 Integral files         IntName         .... IBUVUW02-S1
 Hartree-Fock type      HFTyp           .... RHF
 Total Charge           Charge          ....    0
 Multiplicity           Mult            ....    1
 Number of Electrons    NEL             ....  340
 Basis Dimension        Dim             .... 1591
 Nuclear Repulsion      ENuc            ....   6204.8803584532 Eh

Convergence Acceleration:
 AO-DIIS                CNVDIIS         .... on
   Start iteration      DIISMaxIt       ....    12
   Startup error        DIISStart       ....  0.200000
   # of expansion vecs  DIISMaxEq       ....     5
   Bias factor          DIISBfac        ....   1.050
   Max. coefficient     DIISMaxC        ....  10.000
 MO-DIIS                CNVKDIIS        .... off
 Trust-Rad. Augm. Hess. CNVTRAH         .... auto
   Auto Start mean grad. ratio tolernc. ....  1.125000
   Auto Start start iteration           ....    50
   Auto Start num. interpolation iter.  ....    10
   Max. Number of Micro iterations      ....    24
   Max. Number of Macro iterations      .... Maxiter - #DIIS iter
   Number of Davidson start vectors     ....     2
   Converg. threshold    (grad. norm)   ....   1.000e-05
   Grad. Scal. Fac. for Micro threshold ....   0.100
   Minimum threshold for Micro iter.    ....   1.000e-02
   NR start threshold (gradient norm)   ....   1.000e-04
   Initial trust radius                 ....   0.400
   Minimum AH scaling param. (alpha)    ....   1.000
   Maximum AH scaling param. (alpha)    .... 1000.000
   Quad. conv. algorithm                .... NR
   White noise on init. David. guess    .... on
   Maximum white noise                  ....   0.010
   Pseudo random numbers                .... off
   Inactive MOs                         .... canonical
   Orbital update algorithm             .... Taylor
   Preconditioner                       .... Diag
   Full preconditioner red. dimension   ....   250
[...]
196:   3245.14   0.000564    2.85  0.000054  (-0.000162  0.005222 -0.005187)
197:   3415.74   0.041472  209.58  0.003789  ( 0.002057 -0.042646  0.044340)
198:   3416.08   0.022499  113.70  0.002055  ( 0.001462 -0.031410  0.032659)
199:   3517.67   0.007934   40.10  0.000704  (-0.013799  0.013944 -0.017862)
200:   3517.89   0.009020   45.59  0.000800  (-0.014785  0.014825 -0.019021)

* The epsilon (eps) is given for a Dirac delta lineshape.
** The dipole moment derivative (T) already includes vibrational overlap.

The first frequency considered to be a vibration is 6
The total number of vibrations considered is 195


--------------------------
THERMOCHEMISTRY AT 298.15K
--------------------------

Temperature         ...   298.15 K
Pressure            ...     1.00 atm
Total Mass          ...   664.44 AMU
Quasi RRHO          ...     True
Cut-Off Frequency   ...     1.00 cm^-1

Throughout the following assumptions are being made:
  (1) The electronic state is orbitally nondegenerate
  (2) There are no thermally accessible electronically excited states
  (3) Hindered rotations indicated by low frequency modes are not
      treated as such but are treated as vibrations and this may
      cause some error
  (4) All equations used are the standard statistical mechanics
      equations for an ideal gas
  (5) All vibrations are strictly harmonic

freq.       7.08  E(vib)   ...       0.58 
freq.       7.32  E(vib)   ...       0.58 
freq.      10.62  E(vib)   ...       0.58 
freq.      11.74  E(vib)   ...       0.58 
freq.      15.68  E(vib)   ...       0.57 
freq.      24.63  E(vib)   ...       0.56 
freq.      28.33  E(vib)   ...       0.55 
freq.      29.63  E(vib)   ...       0.55 
freq.      35.47  E(vib)   ...       0.54 
freq.      44.87  E(vib)   ...       0.53 
freq.      45.34  E(vib)   ...       0.53 
freq.      47.37  E(vib)   ...       0.53 
freq.      52.36  E(vib)   ...       0.52 
freq.      67.81  E(vib)   ...       0.50 
freq.      75.92  E(vib)   ...       0.49 
freq.      94.53  E(vib)   ...       0.47 
freq.      98.98  E(vib)   ...       0.46 
freq.     107.89  E(vib)   ...       0.45 
freq.     113.69  E(vib)   ...       0.44 
freq.     123.34  E(vib)   ...       0.43 
freq.     136.38  E(vib)   ...       0.42 
freq.     137.61  E(vib)   ...       0.42 
freq.     141.83  E(vib)   ...       0.41 
freq.     152.47  E(vib)   ...       0.40 
freq.     174.54  E(vib)   ...       0.38 
freq.     189.34  E(vib)   ...       0.36 
freq.     209.74  E(vib)   ...       0.34 
freq.     215.55  E(vib)   ...       0.34 
freq.     230.07  E(vib)   ...       0.32 
freq.     233.25  E(vib)   ...       0.32 
freq.     238.63  E(vib)   ...       0.32 
freq.     243.57  E(vib)   ...       0.31 
freq.     249.74  E(vib)   ...       0.31 
freq.     260.65  E(vib)   ...       0.30 
freq.     273.06  E(vib)   ...       0.29 
freq.     273.47  E(vib)   ...       0.29 
freq.     285.58  E(vib)   ...       0.28 
freq.     289.40  E(vib)   ...       0.27 
freq.     305.34  E(vib)   ...       0.26 
freq.     312.48  E(vib)   ...       0.25 
freq.     324.47  E(vib)   ...       0.25 
freq.     329.63  E(vib)   ...       0.24 
freq.     345.68  E(vib)   ...       0.23 
freq.     352.60  E(vib)   ...       0.22 
freq.     358.08  E(vib)   ...       0.22 
freq.     395.01  E(vib)   ...       0.20 
freq.     402.11  E(vib)   ...       0.19 
freq.     403.64  E(vib)   ...       0.19 
freq.     416.25  E(vib)   ...       0.18 
freq.     416.71  E(vib)   ...       0.18 
freq.     419.87  E(vib)   ...       0.18 
freq.     453.31  E(vib)   ...       0.16 
freq.     466.24  E(vib)   ...       0.16 
freq.     467.46  E(vib)   ...       0.16 
freq.     477.62  E(vib)   ...       0.15 
freq.     508.38  E(vib)   ...       0.14 
freq.     511.95  E(vib)   ...       0.14 
freq.     532.91  E(vib)   ...       0.13 
freq.     537.44  E(vib)   ...       0.12 
freq.     540.33  E(vib)   ...       0.12 
freq.     541.66  E(vib)   ...       0.12 
freq.     541.99  E(vib)   ...       0.12 
freq.     544.65  E(vib)   ...       0.12 
freq.     557.27  E(vib)   ...       0.12 
freq.     557.93  E(vib)   ...       0.12 
freq.     626.18  E(vib)   ...       0.09 
freq.     630.04  E(vib)   ...       0.09 
freq.     651.01  E(vib)   ...       0.08 
freq.     651.37  E(vib)   ...       0.08 
freq.     655.78  E(vib)   ...       0.08 
freq.     658.23  E(vib)   ...       0.08 
freq.     679.45  E(vib)   ...       0.08 
freq.     679.84  E(vib)   ...       0.08 
freq.     702.18  E(vib)   ...       0.07 
freq.     705.73  E(vib)   ...       0.07 
freq.     724.60  E(vib)   ...       0.06 
freq.     725.60  E(vib)   ...       0.06 
freq.     745.08  E(vib)   ...       0.06 
freq.     749.45  E(vib)   ...       0.06 
freq.     761.64  E(vib)   ...       0.06 
freq.     764.45  E(vib)   ...       0.06 
freq.     766.26  E(vib)   ...       0.06 
freq.     767.18  E(vib)   ...       0.06 
freq.     776.47  E(vib)   ...       0.05 
freq.     777.44  E(vib)   ...       0.05 
freq.     779.61  E(vib)   ...       0.05 
freq.     784.22  E(vib)   ...       0.05 
freq.     814.72  E(vib)   ...       0.05 
freq.     816.77  E(vib)   ...       0.05 
freq.     820.33  E(vib)   ...       0.05 
freq.     820.46  E(vib)   ...       0.05 
freq.     922.73  E(vib)   ...       0.03 
freq.     922.81  E(vib)   ...       0.03 
freq.     928.64  E(vib)   ...       0.03 
freq.     929.00  E(vib)   ...       0.03 
freq.     964.10  E(vib)   ...       0.03 
freq.     965.33  E(vib)   ...       0.03 
freq.     996.38  E(vib)   ...       0.02 
freq.     996.40  E(vib)   ...       0.02 
freq.    1010.52  E(vib)   ...       0.02 
freq.    1010.91  E(vib)   ...       0.02 
freq.    1018.27  E(vib)   ...       0.02 
freq.    1020.36  E(vib)   ...       0.02 
freq.    1024.58  E(vib)   ...       0.02 
freq.    1024.69  E(vib)   ...       0.02 
freq.    1025.66  E(vib)   ...       0.02 
freq.    1025.69  E(vib)   ...       0.02 
freq.    1025.85  E(vib)   ...       0.02 
freq.    1026.48  E(vib)   ...       0.02 
freq.    1041.73  E(vib)   ...       0.02 
freq.    1045.16  E(vib)   ...       0.02 
freq.    1056.85  E(vib)   ...       0.02 
freq.    1057.82  E(vib)   ...       0.02 
freq.    1075.17  E(vib)   ...       0.02 
freq.    1075.92  E(vib)   ...       0.02 
freq.    1086.62  E(vib)   ...       0.02 
freq.    1089.02  E(vib)   ...       0.02 
freq.    1106.05  E(vib)   ...       0.02 
freq.    1106.69  E(vib)   ...       0.02 
freq.    1126.57  E(vib)   ...       0.01 
freq.    1127.85  E(vib)   ...       0.01 
freq.    1145.86  E(vib)   ...       0.01 
freq.    1148.22  E(vib)   ...       0.01 
freq.    1176.09  E(vib)   ...       0.01 
freq.    1176.11  E(vib)   ...       0.01 
freq.    1181.39  E(vib)   ...       0.01 
freq.    1181.45  E(vib)   ...       0.01 
freq.    1222.88  E(vib)   ...       0.01 
freq.    1223.12  E(vib)   ...       0.01 
freq.    1243.08  E(vib)   ...       0.01 
freq.    1244.32  E(vib)   ...       0.01 
freq.    1318.17  E(vib)   ...       0.01 
freq.    1318.19  E(vib)   ...       0.01 
freq.    1326.10  E(vib)   ...       0.01 
freq.    1329.69  E(vib)   ...       0.01 
freq.    1337.35  E(vib)   ...       0.01 
freq.    1337.41  E(vib)   ...       0.01 
freq.    1340.93  E(vib)   ...       0.01 
freq.    1343.51  E(vib)   ...       0.01 
freq.    1352.04  E(vib)   ...       0.01 
freq.    1355.18  E(vib)   ...       0.01 
freq.    1380.72  E(vib)   ...       0.01 
freq.    1381.56  E(vib)   ...       0.01 
freq.    1441.43  E(vib)   ...       0.00 
freq.    1443.79  E(vib)   ...       0.00 
freq.    1447.73  E(vib)   ...       0.00 
freq.    1448.48  E(vib)   ...       0.00 
freq.    1468.09  E(vib)   ...       0.00 
freq.    1469.15  E(vib)   ...       0.00 
freq.    1481.50  E(vib)   ...       0.00 
freq.    1482.19  E(vib)   ...       0.00 
freq.    1496.87  E(vib)   ...       0.00 
freq.    1497.13  E(vib)   ...       0.00 
freq.    1515.11  E(vib)   ...       0.00 
freq.    1516.51  E(vib)   ...       0.00 
freq.    1547.92  E(vib)   ...       0.00 
freq.    1548.17  E(vib)   ...       0.00 
freq.    1582.10  E(vib)   ...       0.00 
freq.    1582.66  E(vib)   ...       0.00 
freq.    1604.27  E(vib)   ...       0.00 
freq.    1604.68  E(vib)   ...       0.00 
freq.    1640.64  E(vib)   ...       0.00 
freq.    1640.68  E(vib)   ...       0.00 
freq.    1641.78  E(vib)   ...       0.00 
freq.    1643.46  E(vib)   ...       0.00 
freq.    1661.21  E(vib)   ...       0.00 
freq.    1661.42  E(vib)   ...       0.00 
freq.    1678.44  E(vib)   ...       0.00 
freq.    1678.86  E(vib)   ...       0.00 
freq.    1717.65  E(vib)   ...       0.00 
freq.    1717.70  E(vib)   ...       0.00 
freq.    2321.89  E(vib)   ...       0.00 
freq.    2327.12  E(vib)   ...       0.00 
freq.    2359.78  E(vib)   ...       0.00 
freq.    2363.34  E(vib)   ...       0.00 
freq.    3184.29  E(vib)   ...       0.00 
freq.    3184.32  E(vib)   ...       0.00 
freq.    3205.69  E(vib)   ...       0.00 
freq.    3205.70  E(vib)   ...       0.00 
freq.    3206.54  E(vib)   ...       0.00 
freq.    3206.60  E(vib)   ...       0.00 
freq.    3214.42  E(vib)   ...       0.00 
freq.    3214.80  E(vib)   ...       0.00 
freq.    3225.54  E(vib)   ...       0.00 
freq.    3225.59  E(vib)   ...       0.00 
freq.    3228.70  E(vib)   ...       0.00 
freq.    3228.74  E(vib)   ...       0.00 
freq.    3236.98  E(vib)   ...       0.00 
freq.    3237.00  E(vib)   ...       0.00 
freq.    3245.12  E(vib)   ...       0.00 
freq.    3245.14  E(vib)   ...       0.00 
freq.    3415.74  E(vib)   ...       0.00 
freq.    3416.08  E(vib)   ...       0.00 
freq.    3517.67  E(vib)   ...       0.00 
freq.    3517.89  E(vib)   ...       0.00 

------------
INNER ENERGY
------------

The inner energy is: U= E(el) + E(ZPE) + E(vib) + E(rot) + E(trans)
    E(el)   - is the total energy from the electronic structure calculation
              = E(kin-el) + E(nuc-el) + E(el-el) + E(nuc-nuc)
    E(ZPE)  - the the zero temperature vibrational energy from the frequency calculation
    E(vib)  - the the finite temperature correction to E(ZPE) due to population
              of excited vibrational states
    E(rot)  - is the rotational thermal energy
    E(trans)- is the translational thermal energy

Summary of contributions to the inner energy U:
Electronic energy                ...  -3326.41007347 Eh
Zero point energy                ...      0.48644359 Eh     305.25 kcal/mol
Thermal vibrational correction   ...      0.03785580 Eh      23.75 kcal/mol
Thermal rotational correction    ...      0.00141627 Eh       0.89 kcal/mol
Thermal translational correction ...      0.00141627 Eh       0.89 kcal/mol
-----------------------------------------------------------------------
Total thermal energy                  -3325.88294154 Eh


Summary of corrections to the electronic energy:
(perhaps to be used in another calculation)
Total thermal correction                  0.04068834 Eh      25.53 kcal/mol
Non-thermal (ZPE) correction              0.48644359 Eh     305.25 kcal/mol
-----------------------------------------------------------------------
Total correction                          0.52713193 Eh     330.78 kcal/mol


--------
ENTHALPY
--------

The enthalpy is H = U + kB*T
                kB is Boltzmann's constant
Total thermal energy              ...  -3325.88294154 Eh 
Thermal Enthalpy correction       ...      0.00094421 Eh       0.59 kcal/mol
-----------------------------------------------------------------------
Total Enthalpy                    ...  -3325.88199733 Eh


Note: Only C1 symmetry has been detected, increase convergence thresholds 
      if your molecule has a higher symmetry. Symmetry factor of 1.0 is   
      used for the rotational entropy correction. 
 

Note: Rotational entropy computed according to Herzberg 
Infrared and Raman Spectra, Chapter V,1, Van Nostrand Reinhold, 1945 
Point Group:  C1, Symmetry Number:   1  
Rotational constants in cm-1:     0.003362     0.001405     0.001367 

Vibrational entropy computed according to the QRRHO of S. Grimme
Chem.Eur.J. 2012 18 9955 using a reference frequency of 100.0 cm-1


-------
ENTROPY
-------

The entropy contributions are T*S = T*(S(el)+S(vib)+S(rot)+S(trans))
     S(el)   - electronic entropy
     S(vib)  - vibrational entropy
     S(rot)  - rotational entropy
     S(trans)- translational entropy
The entropies will be listed as multiplied by the temperature to get
units of energy

Electronic entropy                ...      0.00000000 Eh      0.00 kcal/mol
Vibrational entropy               ...      0.07088586 Eh     44.48 kcal/mol
Rotational entropy                ...      0.01841348 Eh     11.55 kcal/mol
Translational entropy             ...      0.02155335 Eh     13.52 kcal/mol
-----------------------------------------------------------------------
Final entropy term                ...      0.11085268 Eh     69.56 kcal/mol

In case the symmetry of your molecule has not been determined correctly
or in case you have a reason to use a different symmetry number we print 
out the resulting rotational entropy values for sn=1,12:

 non-linear molecules -----------------------------------
|  sn= 1 | S(rot)=       0.01841348 Eh     11.55 kcal/mol|
|  sn= 2 | S(rot)=       0.01775902 Eh     11.14 kcal/mol|
|  sn= 3 | S(rot)=       0.01737619 Eh     10.90 kcal/mol|
|  sn= 4 | S(rot)=       0.01710457 Eh     10.73 kcal/mol|
|  sn= 5 | S(rot)=       0.01689388 Eh     10.60 kcal/mol|
|  sn= 6 | S(rot)=       0.01672173 Eh     10.49 kcal/mol|
|  sn= 7 | S(rot)=       0.01657619 Eh     10.40 kcal/mol|
|  sn= 8 | S(rot)=       0.01645011 Eh     10.32 kcal/mol|
|  sn= 9 | S(rot)=       0.01633890 Eh     10.25 kcal/mol|
|  sn=10 | S(rot)=       0.01623942 Eh     10.19 kcal/mol|
|  sn=11 | S(rot)=       0.01614943 Eh     10.13 kcal/mol|
|  sn=12 | S(rot)=       0.01606728 Eh     10.08 kcal/mol|
 linear molecules ---------------------------------------
|  Dinfh | S(rot)=       0.01155270 Eh      7.25 kcal/mol|
|  Cinfv | S(rot)=       0.01220716 Eh      7.66 kcal/mol|
 --------------------------------------------------------


-------------------
GIBBS FREE ENERGY
-------------------

The Gibbs free energy is G = H - T*S

Total enthalpy                    ...  -3325.88199733 Eh 
Total entropy correction          ...     -0.11085268 Eh    -69.56 kcal/mol
-----------------------------------------------------------------------
Final Gibbs free energy         ...  -3325.99285001 Eh

For completeness - the Gibbs free energy minus the electronic energy
G-E(el)                           ...      0.41722346 Eh    261.81 kcal/mol


Maximum memory used throughout the entire PROP-calculation: 1591.2 MB

--------------------------------
SUGGESTED CITATIONS FOR THIS RUN
--------------------------------

Below you find a list of papers that are relevant to this ORCA run
We neither can nor want to force you to cite these papers, but we appreciate if you do
You receive ORCA, which is the product of decades of hard work by many enthusiastic individuals, for free
The only thing we kindly ask in return is that you cite our papers,
We deeply appreciate it, if you show your appreciation for ORCA by not just citing the generic ORCA reference.

Please note that relegating all ORCA citations to the supporting information does *not* help us.
SI sections are not indexed - citations you put there will not count into any citation statistics
But we need these citations in order to attract the funding resources that allow us to do what we are doing

Therefore, if you are a happy ORCA user, please consider citing a few of the papers listed below in the main body of your paper

In addition to the list printed below, the program has created the file IBUVUW02-S1.bibtex that contains the list in bibtex format
You can import this file easily into all common literature databanks and citation aid programs


List of essential papers. We consider these as the minimum necessary citations

  1. Neese,F.
     Software update: the ORCA program system, version 5.0
     WIRES Comput. Molec. Sci., 2022 12(1)e1606
     doi.org/10.1002/wcms.1606

List of papers to cite with high priority. The work reported in these papers was absolutely
necessary for this run to complete.
Our perspective: the developers of density functionals and basis sets usually get cited in chemistry papers
Good! But without the algorithms to do something with them, the functionals or basis sets would not do anything.
Hence, in our opinion, the algorithm design and method developments papers are equally worthy of getting cited

  1. Neese,F.
     An improvement of the resolution of the identity approximation for the formation of the Coulomb matrix
     J. Comp. Chem., 2003 24(14)1740-1747
     doi.org/10.1002/jcc.10318
  2. Neese,F.; Wennmohs,F.; Hansen,A.; Becker,U.
     Efficient, approximate and parallel Hartree-Fock and hybrid DFT calculations. A 'chain-of-spheres' algorithm for the Hartree-Fock exchange
     Chem. Phys., 2009 356(1-3)98-109
     doi.org/10.1016/j.chemphys.2008.10.036
  3. Bykov,D.; Petrenko,T.; Izsak,R.; Kossmann,S.; Becker,U.; Valeev,E.; Neese,F.
     Efficient implementation of the analytic second derivatives of Hartree-Fock and hybrid DFT energies: a detailed analysis of different approximations
     Molec. Phys., 2015 113 1961-1977
     doi.org/10.1080/00268976.2015.1025114
  4. Helmich-Paris,B.; de Souza,B.; Neese,F.; Izsák,R.
     An improved chain of spheres for exchange algorithm
     J. Chem. Phys., 2021 155 104109
     doi.org/doi: 10.1063/5.0058766.
  5. Neese,F.
     The SHARK Integral Generation and Digestion System
     J. Comp. Chem., 2022  1-16
     doi.org/10.1002/jcc.26942

List of suggested additional citations. These are papers that are important in the 'surrounding' of 
of this run, or papers that preceded the highly important papers. If you like your results we are grateful for a citation.

  1. Izsak,R.; Neese,F.
     An overlap fitted chain of spheres exchange method
     J. Chem. Phys., 2011 135 144105
     doi.org/10.1063/1.3646921
  2. Izsak,R.; Hansen,A.; Neese,F.
     The resolution of identity and chain of spheres approximations for the LPNO-CCSD singles Fock term
     Molec. Phys., 2012 110 2413-2417
     doi.org/10.1080/00268976.2012.687466
  3. Neese,F.
     The ORCA program system
     WIRES Comput. Molec. Sci., 2012 2(1)73-78
     doi.org/10.1002/wcms.81
  4. Izsak,R.; Neese,F.; Klopper,W.
     Robust fitting techniques in the chain of spheres approximation to the Fock exchange: The role of the complementary space
     J. Chem. Phys., 2013 139 
     doi.org/10.1063/1.4819264
  5. Neese,F.
     Software update: the ORCA program system, version 4.0
     WIRES Comput. Molec. Sci., 2018 8(1)1-6
     doi.org/10.1002/wcms.1327
  6. Neese,F.; Wennmohs,F.; Becker,U.; Riplinger,C.
     The ORCA quantum chemistry program package
     J. Chem. Phys., 2020 152 Art. No. L224108
     doi.org/10.1063/5.0004608

List of optional additional citations

  1. Neese,F.
     Approximate second-order SCF convergence for spin unrestricted wavefunctions
     Chem. Phys. Lett., 2000 325(1-3)93-98
     doi.org/10.1016/s0009-2614(00)00662-x

Timings for individual modules:

Sum of individual times          ...    29559.701 sec (= 492.662 min)
Startup calculation              ...      515.115 sec (=   8.585 min)   1.7 %
SCF iterations                   ...    10968.070 sec (= 182.801 min)  37.1 %
Property integrals               ...     5524.812 sec (=  92.080 min)  18.7 %
SCF Response                     ...     8445.563 sec (= 140.759 min)  28.6 %
Property calculations            ...     1737.352 sec (=  28.956 min)   5.9 %
SCF Gradient evaluation          ...     2366.563 sec (=  39.443 min)   8.0 %
Geometry relaxation              ...        2.228 sec (=   0.037 min)   0.0 %
                             ****ORCA TERMINATED NORMALLY****
TOTAL RUN TIME: 0 days 8 hours 13 minutes 40 seconds 562 msec
