
                                 *****************
                                 * O   R   C   A *
                                 *****************

                                            #,                                       
                                            ###                                      
                                            ####                                     
                                            #####                                    
                                            ######                                   
                                           ########,                                 
                                     ,,################,,,,,                         
                               ,,#################################,,                 
                          ,,##########################################,,             
                       ,#########################################, ''#####,          
                    ,#############################################,,   '####,        
                  ,##################################################,,,,####,       
                ,###########''''           ''''###############################       
              ,#####''   ,,,,##########,,,,          '''####'''          '####       
            ,##' ,,,,###########################,,,                        '##       
           ' ,,###''''                  '''############,,,                           
         ,,##''                                '''############,,,,        ,,,,,,###''
      ,#''                                            '''#######################'''  
     '                                                          ''''####''''         
             ,#######,   #######,   ,#######,      ##                                
            ,#'     '#,  ##    ##  ,#'     '#,    #''#        ,####,   ,####,        
            ##       ##  ##   ,#'  ##            #'  '#       #'       #'  '#        
            ##       ##  #######   ##           ,######,      #####,   #    #        
            '#,     ,#'  ##    ##  '#,     ,#' ,#      #,     #,   #   #,  ,#        
             '#######'   ##     ##  '#######'  #'      '#     '####' # '####'        



                #########################################################
                #                        -***-                          #
                #          Department of theory and spectroscopy        #
                #                                                       #
                #                      Frank Neese                      #
                #                                                       #
                #     Directorship, Architecture, Infrastructure        #
                #                    SHARK, DRIVERS                     #
                #        Core code/Algorithms in most modules           #
                #                                                       #
                #        Max Planck Institute fuer Kohlenforschung      #
                #                Kaiser Wilhelm Platz 1                 #
                #                 D-45470 Muelheim/Ruhr                 #
                #                      Germany                          #
                #                                                       #
                #                  All rights reserved                  #
                #                        -***-                          #
                #########################################################


                         Program Version 6.0.1  -  RELEASE   -


 With contributions from (in alphabetic order):
[Max-Planck-Institut fuer Kohlenforschung]                               
  Daniel Aravena         : Magnetic Suceptibility                        
  Michael Atanasov       : Ab Initio Ligand Field Theory (pilot matlab implementation)
  Alexander A. Auer      : GIAO ZORA, VPT2 properties, NMR spectrum      
  Ute Becker             : All parallelization in ORCA, NUMFREQ, NUMCALC 
  Giovanni Bistoni       : ED, misc. LED, open-shell LED, HFLD           
  Martin Brehm           : Molecular dynamics                            
  Dmytro Bykov           : pre 5.0 version of the SCF Hessian            
  Marcos Casanova-Páez   : Triplet and SCS-CIS(D). UHF-(DLPNO)-IP/EA/STEOM-CCSD. UHF-CVS-IP/STEOM-CCSD   
  Vijay G. Chilkuri      : MRCI spin determinant printing, contributions to CSF-ICE 
  Pauline Colinet        : FMM embedding                                 
  Dipayan Datta          : RHF DLPNO-CCSD density                        
  Achintya Kumar Dutta   : EOM-CC, STEOM-CC                              
  Nicolas Foglia         : Exact transition moments, OPA infrastructure, MCD improvements    
  Dmitry Ganyushin       : Spin-Orbit,Spin-Spin,Magnetic field MRCI      
  Miquel Garcia-Rates    : C-PCM and meta-GGA Hessian, CCSD/C-PCM, Gaussian charge scheme 
  Tiago L. C. Gouveia    : GS-ROHF, GS-ROCIS                             
  Yang Guo               : DLPNO-NEVPT2, F12-NEVPT2, CIM, IAO-localization        
  Andreas Hansen         : Spin unrestricted coupled pair/coupled cluster methods 
  Ingolf Harden          : AUTO-CI MPn and infrastructure                
  Benjamin Helmich-Paris : MC-RPA, TRAH-(SCF,CASSCF), AVAS, COSX integrals, SCF dyn. polar. 
  Lee Huntington         : MR-EOM, pCC                                   
  Robert Izsak           : Overlap fitted RIJCOSX, COSX-SCS-MP3, EOM     
  Riya Kayal             : Wick's Theorem for AUTO-CI, AUTO-CI UHF-CCSDT 
  Emily Kempfer          : AUTO-CI, RHF CISDT and CCSDT                  
  Christian Kollmar      : KDIIS, OOCD, Brueckner-CCSD(T), CCSD density, CASPT2, CASPT2-K, improved NEVPT2 
  Axel Koslowski         : Symmetry handling                             
  Simone Kossmann        : meta-GGA functionals, TD-DFT gradient, OOMP2, (MP2 Hessian; deprecated post 5.0) 
  Lucas Lang             : DCDCAS                                        
  Marvin Lechner         : AUTO-CI (C++ implementation), FIC-MRCC        
  Spencer Leger          : CASSCF response                               
  Dagmar Lenk            : GEPOL surface, SMD, ORCA-2-JSON               
  Dimitrios Liakos       : Extrapolation schemes; Compound Job, initial MDCI parallelization 
  Dimitrios Manganas     : Further ROCIS development; embedding schemes. LFT, Crystal Embedding 
  Dimitrios Pantazis     : SARC Basis sets                               
  Anastasios Papadopoulos: AUTO-CI, single reference methods and gradients 
  Taras Petrenko         : pre 6.0 DFT Hessian and TD-DFT gradient, (ASA, deprecated), ECA, 1-Electron XAS/XES, NRVS 
  Peter Pinski           : DLPNO-MP2, DLPNO-MP2 Gradient                 
  Christoph Reimann      : Effective Core Potentials                     
  Marius Retegan         : Local ZFS, SOC                                
  Christoph Riplinger    : Optimizer, TS searches, QM/MM, DLPNO-CCSD(T), (RO)-DLPNO pert. Triples 
  Michael Roemelt        : Original ROCIS implementation                 
  Masaaki Saitow         : Open-shell DLPNO-CCSD energy and density      
  Barbara Sandhoefer     : DKH picture change effects                    
  Kantharuban Sivalingam : CASSCF convergence/infrastructure, NEVPT2 and variants, FIC-MRCI 
  Bernardo de Souza      : ESD, SOC TD-DFT                               
  Georgi L. Stoychev     : AutoAux, RI-MP2 NMR, DLPNO-MP2 response, X2C  
  Van Anh Tran           : RI-MP2 g-tensors                              
  Willem Van den Heuvel  : Paramagnetic NMR                              
  Zikuan Wang            : NOTCH, Electric field optimization            
  Frank Wennmohs         : Technical directorship and infrastructure     
  Hang Xu                : AUTO-CI-Response properties                   
                                                                         
[FACCTs GmbH]                                                            
  Markus Bursch, Miquel Garcia-Rates, Christoph Riplinger, Bernardo de Souza, Georgi L. Stoychev 
                                                                 
  APM, Basis sets (HGBS, AHGBS, def-TZVP (Ac-Lr), def2-XVPD (La-Lu)), CI-OPT, improved COSX, DLPNO-Multilevel,           
  DOCKER, DRACO, updates on ESD, GOAT, IRC, LR-CPCM, MBIS, meta-GGA TD-DFT gradient, ML-optimized integration grids, 
  MM, NACMEs, nearIR, NEB, NEB-TS, NL-DFT gradient (VV10), 2- and 3-layer-ONIOM, interface openCOSMO-RS, QMMM,   
  Crystal-QMMM, SF, symmetry and pop. for TD-DFT, r2SCAN hybrids, SOLVATOR                                   
                                                                         
[Other institutions]                                                     
  V. Asgeirsson          : NEB                                           
  Christoph Bannwarth    : sTDA-DFT, sTD-DFT, PBEh-3c, B97-3c, D3        
  Sebastian Ehlert       : rSCAN, r2SCAN, r2SCAN-3c, D4, dhf basis sets  
  Marvin Friede          : D4 for Fr, Ra, Ac-Lr                          
  Lars Goerigk           : TD-DFT with DH, B97 family of functionals     
  Stefan Grimme          : VdW corrections, initial TS optimization, DFT functionals, gCP, sTDA/sTD-DF 
  Waldemar Hujo          : DFT-NL                                        
  H. Jonsson             : NEB                                           
  Holger Kruse           : gCP                                           
  Marcel Mueller         : wB97X-3c, vDZP basis set                      
  Hagen Neugebauer       : wr2SCAN                                       
  Tobias Risthaus        : range-separated hybrid DFT                    
  Lukas Wittmann         : regularized MP2, r2SCAN double-hybrids, wr2SCAN        
                                                                         
We gratefully acknowledge several colleagues who have allowed us to      
interface, adapt or use parts of their codes:                            
  Ed Valeev, F. Pavosevic, A. Kumar             : LibInt (2-el integral package), F12 methods 
  Garnet Chan, S. Sharma, J. Yang, R. Olivares  : DMRG                   
  Ulf Ekstrom                                   : XCFun DFT Library      
  Mihaly Kallay                                 : mrcc  (arbitrary order and MRCC methods)
  Frank Weinhold                                : gennbo (NPA and NBO analysis)           
  Simon Mueller                                 : openCOSMO-RS                            
  Christopher J. Cramer and Donald G. Truhlar   : smd solvation model                     
  S Lehtola, MJT Oliveira, MAL Marques          : LibXC Library                           
  Liviu Ungur et al                             : ANISO software                          


 Your calculation uses the libint2 library for the computation of 2-el integrals
 For citations please refer to: http://libint.valeyev.net

 Your ORCA version has been built with support for libXC version: 6.2.2
 For citations please refer to: https://libxc.gitlab.io

 This ORCA versions uses:
   CBLAS   interface :  Fast vector & matrix operations
   LAPACKE interface :  Fast linear algebra routines
   SCALAPACK package :  Parallel linear algebra routines
   Shared memory     :  Shared parallel matrices
   BLAS/LAPACK       :  OpenBLAS 0.3.27  USE64BITINT DYNAMIC_ARCH NO_AFFINITY Cooperlake SINGLE_THREADED
        Core in use  :  Cooperlake
   Copyright (c) 2011-2014, The OpenBLAS Project


NOTE: MaxCore=3600 MB was set to SCF,MP2,MDCI,CIPSI,MRCI and CIS
      => If you want to overwrite this, your respective input block should be placed after the MaxCore statement
Warning: RI is on but no J-basis has been assigned. Assigning Def2/J (nothing to worry about!)
================================================================================

----- Orbital basis set information -----
Your calculation utilizes the basis: def2-TZVP
   F. Weigend and R. Ahlrichs, Phys. Chem. Chem. Phys. 7, 3297 (2005).

----- AuxJ basis set information -----
Your calculation utilizes the auxiliary basis: def2/J
   F. Weigend, Phys. Chem. Chem. Phys. 8, 1057 (2006).

================================================================================
                                        WARNINGS
                       Please study these warnings very carefully!
================================================================================


WARNING: Geometry Optimization
  ===> : Switching off AutoStart
         For restart on a previous wavefunction, please use MOREAD

================================================================================
                                       INPUT FILE
================================================================================
NAME = OCAHEI-S5.inp
|  1> ! PBE0 def2-TZVP  Opt Freq DEFGRID3
|  2> 
|  3> %maxcore 3600
|  4> 
|  5> %pal
|  6>     nprocs 16
|  7> end
|  8> 
|  9> *xyz 0 1
| 10> Fe -5.3267 6.0094 10.0111
| 11> O -8.625 5.2178 12.2409
| 12> O -6.7374 5.0905 11.088
| 13> O -6.5424 7.6396 11.004
| 14> O -3.6585 6.9307 11.36
| 15> O -4.128 7.6546 9.3678
| 16> O -1.4731 8.8011 9.8914
| 17> N -4.4871 4.0453 9.539
| 18> N -6.0666 5.6592 8.0191
| 19> C -3.7198 3.261 10.3003
| 20> C -3.4243 1.9446 9.9125
| 21> H -2.8696 1.4188 10.4426
| 22> C -3.939 1.4399 8.7743
| 23> H -3.753 0.5618 8.5331
| 24> C -4.7546 2.2287 7.9534
| 25> C -5.3134 1.7661 6.7335
| 26> H -5.1663 0.8867 6.4692
| 27> C -6.0488 2.572 5.9573
| 28> H -6.3886 2.2515 5.1534
| 29> C -6.3168 3.9191 6.3506
| 30> C -7.0866 4.7958 5.5838
| 31> H -7.4426 4.5176 4.7706
| 32> C -7.3124 6.0589 6.0357
| 33> H -7.8155 6.6508 5.5246
| 34> C -6.7897 6.4745 7.2688
| 35> C -4.9946 3.5446 8.3816
| 36> C -5.8093 4.3975 7.5677
| 37> C -3.1729 3.8083 11.5691
| 38> H -3.2605 4.764 11.5691
| 39> H -2.2457 3.5725 11.6457
| 40> H -3.6591 3.442 12.3115
| 41> C -7.071 7.8579 7.7636
| 42> H -7.8645 7.8491 8.3035
| 43> H -7.2003 8.4452 7.0151
| 44> H -6.3301 8.1673 8.289
| 45> C -7.6335 5.7017 11.7211
| 46> C -7.3955 7.2218 11.7895
| 47> C -8.0672 8.1345 12.734
| 48> C -7.5472 9.4209 12.8352
| 49> H -6.8409 9.683 12.2913
| 50> C -8.0846 10.3068 13.7443
| 51> H -7.7276 11.1615 13.8252
| 52> C -9.1429 9.9293 14.53
| 53> H -9.5044 10.529 15.1424
| 54> C -9.6634 8.6839 14.4146
| 55> H -10.386 8.4374 14.9446
| 56> C -9.1359 7.7795 13.5249
| 57> H -9.5022 6.9278 13.4569
| 58> C -3.4937 7.7201 10.4332
| 59> C -2.47 8.8496 10.5653
| 60> C -2.7754 9.9735 11.4773
| 61> C -1.9743 11.1061 11.4608
| 62> H -1.222 11.1363 10.9149
| 63> C -2.2943 12.187 12.2566
| 64> H -1.7764 12.958 12.222
| 65> C -3.3727 12.1286 13.0972
| 66> H -3.5798 12.8587 13.636
| 67> C -4.1416 11.0137 13.1478
| 68> H -4.8578 10.9698 13.74
| 69> C -3.8608 9.9388 12.3216
| 70> H -4.4105 9.1883 12.3375
| 71> *
| 72> 
| 73>                          ****END OF INPUT****
================================================================================

                       *****************************
                       * Geometry Optimization Run *
                       *****************************

Geometry optimization settings:
Update method            Update   .... BFGS
Choice of coordinates    CoordSys .... (2022) Redundant Internals
Initial Hessian          InHess   .... Almloef's Model
Max. no of cycles        MaxIter  .... 183

Convergence Tolerances:
Energy Change            TolE     ....  5.0000e-06 Eh
Max. Gradient            TolMAXG  ....  3.0000e-04 Eh/bohr
RMS Gradient             TolRMSG  ....  1.0000e-04 Eh/bohr
Max. Displacement        TolMAXD  ....  4.0000e-03 bohr
RMS Displacement         TolRMSD  ....  2.0000e-03 bohr
Strict Convergence                .... False

------------------------------------------------------------------------------
                        ORCA OPTIMIZATION COORDINATE SETUP
------------------------------------------------------------------------------

The optimization will be done in redundant internal coordinates (2022)
Making redundant internal coordinates   ...  (2022 redundants) done
Evaluating the initial hessian          ...  (Almloef) done
Evaluating the coordinates              ...  done
Calculating the B-matrix                .... done
Calculating the G-matrix                .... done
Diagonalizing the G-matrix              .... done
Small eigenvalue found = 2.646e-03
Small eigenvalue found = 5.021e-03
Small eigenvalue found = 7.718e-03
Small eigenvalue found = 1.233e-02
Small eigenvalue found = 1.647e-02
Small eigenvalue found = 1.924e-02
Small eigenvalue found = 2.799e-02
The first mode is                       ....  217
The number of degrees of freedom        ....  177

    -----------------------------------------------------------------
                    Redundant Internal Coordinates


    -----------------------------------------------------------------
         Definition                    Initial Value    Approx d2E/dq
    -----------------------------------------------------------------
      1. B(O   2,Fe  0)                  1.9985         0.605497   
      2. B(O   3,Fe  0)                  2.2630         0.229154   
      3. B(O   4,Fe  0)                  2.3348         0.176059   
      4. B(O   5,Fe  0)                  2.1348         0.367036   
      5. B(N   7,Fe  0)                  2.1876         0.302354   
      6. B(N   8,Fe  0)                  2.1536         0.342503   
      7. B(C   9,N   7)                  1.3355         0.683739   
      8. B(C  10,C   9)                  1.4038         0.593940   
      9. B(H  11,C  10)                  0.9301         0.647838   
     10. B(C  12,C  10)                  1.3473         0.730989   
     11. B(H  13,C  12)                  0.9294         0.649544   
     12. B(C  14,C  12)                  1.4005         0.601245   
     13. B(C  15,C  14)                  1.4193         0.561038   
     14. B(H  16,C  15)                  0.9300         0.648256   
     15. B(C  17,C  15)                  1.3389         0.753691   
     16. B(H  18,C  17)                  0.9298         0.648766   
     17. B(C  19,C  17)                  1.4287         0.541992   
     18. B(C  20,C  19)                  1.3961         0.610885   
     19. B(H  21,C  20)                  0.9303         0.647504   
     20. B(C  22,C  20)                  1.3604         0.696631   
     21. B(H  23,C  22)                  0.9299         0.648460   
     22. B(C  24,C  22)                  1.4023         0.597170   
     23. B(C  24,N   8)                  1.3231         0.715556   
     24. B(C  25,C  14)                  1.4045         0.592442   
     25. B(C  25,N   7)                  1.3593         0.626291   
     26. B(C  26,C  25)                  1.4330         0.533419   
     27. B(C  26,C  19)                  1.4028         0.596169   
     28. B(C  26,N   8)                  1.3645         0.614559   
     29. B(C  27,C   9)                  1.4861         0.438954   
     30. B(H  28,C  27)                  0.9597         0.581164   
     31. B(H  29,C  27)                  0.9598         0.581016   
     32. B(H  30,C  27)                  0.9601         0.580399   
     33. B(C  31,C  24)                  1.4959         0.423412   
     34. B(H  32,C  31)                  0.9598         0.580968   
     35. B(H  33,C  31)                  0.9602         0.580213   
     36. B(H  34,C  31)                  0.9595         0.581531   
     37. B(C  35,O   2)                  1.2559         0.915726   
     38. B(C  35,O   1)                  1.2196         1.046498   
     39. B(C  36,C  35)                  1.5401         0.359917   
     40. B(C  36,O   3)                  1.2326         0.997628   
     41. B(C  37,C  36)                  1.4752         0.456847   
     42. B(C  38,C  37)                  1.3912         0.622024   
     43. B(H  39,C  38)                  0.9292         0.650121   
     44. B(C  40,C  38)                  1.3784         0.651916   
     45. B(H  41,C  40)                  0.9298         0.648681   
     46. B(C  42,C  40)                  1.3711         0.669795   
     47. B(H  43,C  42)                  0.9302         0.647592   
     48. B(C  44,C  42)                  1.3547         0.711263   
     49. B(H  45,C  44)                  0.9294         0.649569   
     50. B(C  46,C  44)                  1.3740         0.662723   
     51. B(C  46,C  37)                  1.3761         0.657515   
     52. B(H  47,C  46)                  0.9296         0.649082   
     53. B(C  48,O   5)                  1.2417         0.965056   
     54. B(C  48,O   4)                  1.2285         1.012747   
     55. B(C  48,Fe  0)                  2.5425         0.091632   
     56. B(C  49,C  48)                  1.5301         0.373448   
     57. B(C  49,O   6)                  1.2043         1.107061   
     58. B(C  50,C  49)                  1.4792         0.450147   
     59. B(C  51,C  50)                  1.3874         0.630845   
     60. B(H  52,C  51)                  0.9300         0.648209   
     61. B(C  53,C  51)                  1.3799         0.648485   
     62. B(H  54,C  53)                  0.9294         0.649511   
     63. B(C  55,C  53)                  1.3686         0.675989   
     64. B(H  56,C  55)                  0.9307         0.646461   
     65. B(C  57,C  55)                  1.3553         0.709807   
     66. B(H  58,H  39)                  2.7726         0.000143   
     67. B(H  58,C  57)                  0.9304         0.647318   
     68. B(C  59,C  57)                  1.3845         0.637528   
     69. B(C  59,C  50)                  1.3756         0.658857   
     70. B(H  60,C  59)                  0.9304         0.647187   
     71. A(O   5,Fe  0,N   7)          114.2921         0.432408   
     72. A(O   2,Fe  0,O   5)          155.9311         0.490858   
     73. A(O   3,Fe  0,C  48)           80.1985         0.325971   
     74. A(O   4,Fe  0,N   7)          101.8144         0.379802   
     75. A(O   5,Fe  0,N   8)           92.2639         0.442237   
     76. A(O   3,Fe  0,O   5)           83.0329         0.411524   
     77. A(O   4,Fe  0,O   5)           57.9137         0.392845   
     78. A(O   2,Fe  0,N   8)          100.4356         0.484615   
     79. A(O   2,Fe  0,O   3)           73.4773         0.450217   
     80. A(O   3,Fe  0,N   8)          109.7791         0.406513   
     81. A(O   4,Fe  0,N   8)          147.5667         0.388125   
     82. A(N   7,Fe  0,C  48)          111.2985         0.341316   
     83. A(O   2,Fe  0,O   4)          111.9908         0.429298   
     84. A(O   5,Fe  0,C  48)           29.1559         0.352633   
     85. A(O   2,Fe  0,C  48)          136.7843         0.384261   
     86. A(O   3,Fe  0,O   4)           81.1466         0.362117   
     87. A(O   2,Fe  0,N   7)           88.5323         0.473607   
     88. A(O   3,Fe  0,N   7)          161.3759         0.397678   
     89. A(O   4,Fe  0,C  48)           28.7754         0.312248   
     90. A(N   8,Fe  0,C  48)          120.7067         0.348537   
     91. A(N   7,Fe  0,N   8)           77.6578         0.427073   
     92. A(Fe  0,O   2,C  35)          123.4698         0.515912   
     93. A(Fe  0,O   3,C  36)          114.0307         0.438339   
     94. A(Fe  0,O   4,C  48)           85.0406         0.419230   
     95. A(Fe  0,O   5,C  48)           93.9528         0.474735   
     96. A(Fe  0,N   7,C   9)          128.6664         0.430475   
     97. A(C   9,N   7,C  25)          118.9182         0.436806   
     98. A(Fe  0,N   7,C  25)          111.7877         0.423759   
     99. A(Fe  0,N   8,C  26)          113.0518         0.431870   
    100. A(C  24,N   8,C  26)          119.0286         0.438904   
    101. A(Fe  0,N   8,C  24)          127.7406         0.443883   
    102. A(C  10,C   9,C  27)          120.2481         0.405036   
    103. A(N   7,C   9,C  27)          118.8074         0.412585   
    104. A(N   7,C   9,C  10)          120.9435         0.435507   
    105. A(H  11,C  10,C  12)          119.8373         0.401873   
    106. A(C   9,C  10,C  12)          120.2819         0.443706   
    107. A(C   9,C  10,H  11)          119.8807         0.387510   
    108. A(H  13,C  12,C  14)          119.7733         0.388515   
    109. A(C  10,C  12,C  14)          120.4439         0.444689   
    110. A(C  10,C  12,H  13)          119.7827         0.402059   
    111. A(C  12,C  14,C  15)          123.3344         0.424012   
    112. A(C  15,C  14,C  25)          120.0099         0.422895   
    113. A(C  12,C  14,C  25)          116.6494         0.428167   
    114. A(H  16,C  15,C  17)          119.4251         0.404092   
    115. A(C  14,C  15,C  17)          121.2204         0.441592   
    116. A(C  14,C  15,H  16)          119.3545         0.383727   
    117. A(C  15,C  17,C  19)          120.7276         0.438847   
    118. A(C  15,C  17,H  18)          119.6362         0.404148   
    119. A(H  18,C  17,C  19)          119.6363         0.381484   
    120. A(C  17,C  19,C  20)          122.9781         0.422602   
    121. A(C  20,C  19,C  26)          117.5074         0.429874   
    122. A(C  17,C  19,C  26)          119.5080         0.420766   
    123. A(H  21,C  20,C  22)          120.2999         0.398446   
    124. A(C  19,C  20,C  22)          119.4800         0.442103   
    125. A(C  19,C  20,H  21)          120.2201         0.389382   
    126. A(H  23,C  22,C  24)          119.7579         0.387942   
    127. A(C  20,C  22,C  24)          120.3586         0.440293   
    128. A(C  20,C  22,H  23)          119.8834         0.398549   
    129. A(C  22,C  24,C  31)          119.6592         0.402853   
    130. A(N   8,C  24,C  31)          119.0167         0.413277   
    131. A(N   8,C  24,C  22)          121.3152         0.439523   
    132. A(C  14,C  25,C  26)          118.7914         0.419102   
    133. A(N   7,C  25,C  26)          118.4637         0.420529   
    134. A(N   7,C  25,C  14)          122.7449         0.428498   
    135. A(C  19,C  26,C  25)          119.7016         0.419571   
    136. A(N   8,C  26,C  25)          118.0112         0.419113   
    137. A(N   8,C  26,C  19)          122.2868         0.427528   
    138. A(H  29,C  27,H  30)          109.4986         0.339583   
    139. A(H  28,C  27,H  30)          109.4946         0.339597   
    140. A(C   9,C  27,H  30)          109.4710         0.360913   
    141. A(H  28,C  27,H  29)          109.4410         0.339658   
    142. A(C   9,C  27,H  29)          109.4619         0.360978   
    143. A(C   9,C  27,H  28)          109.4601         0.360994   
    144. A(H  33,C  31,H  34)          109.4877         0.339615   
    145. A(H  32,C  31,H  34)          109.4697         0.339689   
    146. A(C  24,C  31,H  34)          109.5185         0.358822   
    147. A(H  32,C  31,H  33)          109.4382         0.339560   
    148. A(C  24,C  31,H  33)          109.4593         0.358684   
    149. A(C  24,C  31,H  32)          109.4538         0.358763   
    150. A(O   2,C  35,C  36)          113.1069         0.419515   
    151. A(O   1,C  35,C  36)          119.8882         0.429653   
    152. A(O   1,C  35,O   2)          126.9993         0.506367   
    153. A(C  35,C  36,C  37)          124.6603         0.373726   
    154. A(O   3,C  36,C  37)          120.8923         0.444675   
    155. A(O   3,C  36,C  35)          114.4056         0.425986   
    156. A(C  38,C  37,C  46)          119.1442         0.438943   
    157. A(C  36,C  37,C  46)          124.1924         0.415332   
    158. A(C  36,C  37,C  38)          116.6450         0.411259   
    159. A(H  39,C  38,C  40)          120.0734         0.394112   
    160. A(C  37,C  38,C  40)          119.7701         0.438266   
    161. A(C  37,C  38,H  39)          120.1564         0.390888   
    162. A(H  41,C  40,C  42)          119.9739         0.395833   
    163. A(C  38,C  40,C  42)          120.1268         0.444165   
    164. A(C  38,C  40,H  41)          119.8993         0.393959   
    165. A(H  43,C  42,C  44)          119.9615         0.399915   
    166. A(C  40,C  42,C  44)          120.0573         0.451238   
    167. A(C  40,C  42,H  43)          119.9811         0.395716   
    168. A(H  45,C  44,C  46)          119.5497         0.395191   
    169. A(C  42,C  44,C  46)          120.8491         0.450369   
    170. A(C  42,C  44,H  45)          119.6012         0.400129   
    171. A(C  44,C  46,H  47)          119.9443         0.395139   
    172. A(C  37,C  46,H  47)          120.0212         0.394593   
    173. A(C  37,C  46,C  44)          120.0345         0.443999   
    174. A(O   5,C  48,C  49)          117.0522         0.426269   
    175. A(O   4,C  48,C  49)          119.9305         0.429971   
    176. A(Fe  0,C  48,C  49)          173.3854         0.319509   
    177. A(O   4,C  48,O   5)          123.0171         0.508231   
    178. A(Fe  0,C  48,O   5)           56.8913         0.372415   
    179. A(Fe  0,C  48,O   4)           66.1840         0.375526   
    180. A(C  48,C  49,C  50)          118.4220         0.375156   
    181. A(O   6,C  49,C  50)          123.1275         0.451937   
    182. A(O   6,C  49,C  48)          118.4108         0.436913   
    183. A(C  51,C  50,C  59)          118.9153         0.440222   
    184. A(C  49,C  50,C  59)          121.4774         0.414393   
    185. A(C  49,C  50,C  51)          119.5847         0.411209   
    186. A(H  52,C  51,C  53)          120.0459         0.393545   
    187. A(C  50,C  51,C  53)          119.9152         0.438963   
    188. A(C  50,C  51,H  52)          120.0389         0.391650   
    189. A(H  54,C  53,C  55)          119.8241         0.396561   
    190. A(C  51,C  53,C  55)          120.2348         0.444481   
    191. A(C  51,C  53,H  54)          119.9411         0.393683   
    192. A(H  56,C  55,C  57)          119.8320         0.399647   
    193. A(C  53,C  55,C  57)          120.3372         0.451825   
    194. A(C  53,C  55,H  56)          119.8307         0.396234   
    195. A(H  58,C  57,C  59)          119.9564         0.392278   
    196. A(C  55,C  57,C  59)          120.0881         0.447047   
    197. A(C  55,C  57,H  58)          119.9553         0.399741   
    198. A(C  57,C  59,H  60)          119.7505         0.392264   
    199. A(C  50,C  59,H  60)          119.8035         0.394532   
    200. A(C  50,C  59,C  57)          120.4460         0.441061   
    201. D(C  35,O   2,Fe  0,N   8)   -104.1368         0.003428   
    202. D(C  35,O   2,Fe  0,O   4)     76.5442         0.003428   
    203. D(C  35,O   2,Fe  0,N   7)    178.6977         0.003428   
    204. D(C  35,O   2,Fe  0,O   5)     16.5816         0.003428   
    205. D(C  35,O   2,Fe  0,O   3)      3.5776         0.003428   
    206. D(C  35,O   2,Fe  0,C  48)     58.4754         0.003428   
    207. D(C  36,O   3,Fe  0,O   4)   -110.9560         0.001782   
    208. D(C  36,O   3,Fe  0,N   8)    100.6433         0.001782   
    209. D(C  36,O   3,Fe  0,N   7)    -10.1993         0.001782   
    210. D(C  36,O   3,Fe  0,C  48)   -140.1099         0.001782   
    211. D(C  36,O   3,Fe  0,O   2)      5.2438         0.001782   
    212. D(C  36,O   3,Fe  0,O   5)   -169.4515         0.001782   
    213. D(C  48,O   4,Fe  0,O   5)      1.5527         0.001669   
    214. D(C  48,O   4,Fe  0,N   7)    112.9555         0.001669   
    215. D(C  48,O   4,Fe  0,O   2)   -153.8199         0.001669   
    216. D(C  48,O   4,Fe  0,O   3)    -85.7398         0.001669   
    217. D(C  48,O   4,Fe  0,N   8)     27.4290         0.001669   
    218. D(C  48,O   5,Fe  0,O   2)     69.8062         0.002211   
    219. D(C  48,O   5,Fe  0,N   8)   -167.9869         0.002211   
    220. D(C  48,O   5,Fe  0,O   4)     -1.5342         0.002211   
    221. D(C  48,O   5,Fe  0,O   3)     82.3586         0.002211   
    222. D(C  48,O   5,Fe  0,N   7)    -90.5112         0.002211   
    223. D(C   9,N   7,Fe  0,O   2)    -78.4982         0.002015   
    224. D(C  25,N   7,Fe  0,O   2)     92.1864         0.002015   
    225. D(C   9,N   7,Fe  0,C  48)     62.0782         0.002015   
    226. D(C   9,N   7,Fe  0,N   8)   -179.5142         0.002015   
    227. D(C   9,N   7,Fe  0,O   4)     33.6701         0.002015   
    228. D(C  25,N   7,Fe  0,O   3)    106.9819         0.002015   
    229. D(C   9,N   7,Fe  0,O   3)    -63.7027         0.002015   
    230. D(C   9,N   7,Fe  0,O   5)     93.6039         0.002015   
    231. D(C  24,N   8,Fe  0,O   2)     96.8126         0.002159   
    232. D(C  26,N   8,Fe  0,O   3)   -154.2724         0.002159   
    233. D(C  24,N   8,Fe  0,C  48)    -69.4190         0.002159   
    234. D(C  26,N   8,Fe  0,O   2)    -78.2224         0.002159   
    235. D(C  24,N   8,Fe  0,O   5)    -62.6459         0.002159   
    236. D(C  24,N   8,Fe  0,O   4)    -84.3648         0.002159   
    237. D(C  24,N   8,Fe  0,O   3)     20.7627         0.002159   
    238. D(C  24,N   8,Fe  0,N   7)   -177.0268         0.002159   
    239. D(C  27,C   9,N   7,C  25)   -179.6407         0.038508   
    240. D(C  27,C   9,N   7,Fe  0)     -9.5284         0.038508   
    241. D(C  10,C   9,N   7,Fe  0)    170.8242         0.038508   
    242. D(C  10,C   9,N   7,C  25)      0.7119         0.038508   
    243. D(C  12,C  10,C   9,C  27)    178.8196         0.024293   
    244. D(H  11,C  10,C   9,C  27)     -1.2904         0.024293   
    245. D(C  12,C  10,C   9,N   7)     -1.5380         0.024293   
    246. D(H  11,C  10,C   9,N   7)    178.3520         0.024293   
    247. D(C  14,C  12,C  10,C   9)      1.1325         0.037923   
    248. D(H  13,C  12,C  10,H  11)      1.3681         0.037923   
    249. D(H  13,C  12,C  10,C   9)   -178.7419         0.037923   
    250. D(C  14,C  12,C  10,H  11)   -178.7575         0.037923   
    251. D(C  25,C  14,C  12,H  13)    179.8903         0.024926   
    252. D(C  25,C  14,C  12,C  10)      0.0158         0.024926   
    253. D(C  15,C  14,C  12,H  13)     -1.0235         0.024926   
    254. D(C  15,C  14,C  12,C  10)    179.1020         0.024926   
    255. D(C  17,C  15,C  14,C  25)      1.4750         0.021564   
    256. D(C  17,C  15,C  14,C  12)   -177.5818         0.021564   
    257. D(H  16,C  15,C  14,C  25)   -178.4764         0.021564   
    258. D(H  16,C  15,C  14,C  12)      2.4668         0.021564   
    259. D(C  19,C  17,C  15,H  16)    178.6189         0.040549   
    260. D(C  19,C  17,C  15,C  14)     -1.3325         0.040549   
    261. D(H  18,C  17,C  15,H  16)     -1.3978         0.040549   
    262. D(H  18,C  17,C  15,C  14)    178.6508         0.040549   
    263. D(C  20,C  19,C  17,C  15)   -179.4362         0.020076   
    264. D(C  26,C  19,C  17,H  18)    179.6325         0.020076   
    265. D(C  26,C  19,C  17,C  15)     -0.3842         0.020076   
    266. D(C  20,C  19,C  17,H  18)      0.5805         0.020076   
    267. D(C  22,C  20,C  19,C  26)      0.0178         0.025778   
    268. D(C  22,C  20,C  19,C  17)    179.0876         0.025778   
    269. D(H  21,C  20,C  19,C  26)   -179.9362         0.025778   
    270. D(H  21,C  20,C  19,C  17)     -0.8664         0.025778   
    271. D(C  24,C  22,C  20,H  21)    179.2378         0.034152   
    272. D(C  24,C  22,C  20,C  19)     -0.7162         0.034152   
    273. D(H  23,C  22,C  20,H  21)     -0.8016         0.034152   
    274. D(H  23,C  22,C  20,C  19)    179.2444         0.034152   
    275. D(C  31,C  24,C  22,H  23)      1.2835         0.024572   
    276. D(C  31,C  24,C  22,C  20)   -178.7559         0.024572   
    277. D(N   8,C  24,C  22,H  23)   -179.8041         0.024572   
    278. D(N   8,C  24,C  22,C  20)      0.1565         0.024572   
    279. D(C  31,C  24,N   8,C  26)   -179.9674         0.042562   
    280. D(C  31,C  24,N   8,Fe  0)      5.2582         0.042562   
    281. D(C  22,C  24,N   8,C  26)      1.1134         0.042562   
    282. D(C  22,C  24,N   8,Fe  0)   -173.6611         0.042562   
    283. D(C  26,C  25,C  14,C  15)      0.1004         0.024164   
    284. D(C  26,C  25,C  14,C  12)    179.2187         0.024164   
    285. D(N   7,C  25,C  14,C  15)   -179.9716         0.024164   
    286. D(N   7,C  25,C  14,C  12)     -0.8532         0.024164   
    287. D(C  26,C  25,N   7,C   9)   -179.5859         0.031812   
    288. D(C  26,C  25,N   7,Fe  0)      8.7161         0.031812   
    289. D(C  14,C  25,N   7,C   9)      0.4858         0.031812   
    290. D(C  14,C  25,N   7,Fe  0)   -171.2122         0.031812   
    291. D(C  19,C  26,C  25,C  14)     -1.7718         0.019428   
    292. D(C  19,C  26,C  25,N   7)    178.2971         0.019428   
    293. D(N   8,C  26,C  25,C  14)    177.9917         0.019428   
    294. D(N   8,C  26,C  25,N   7)     -1.9395         0.019428   
    295. D(C  25,C  26,C  19,C  20)   -178.9634         0.024485   
    296. D(C  25,C  26,C  19,C  17)      1.9332         0.024485   
    297. D(N   8,C  26,C  19,C  20)      1.2836         0.024485   
    298. D(N   8,C  26,C  19,C  17)   -177.8197         0.024485   
    299. D(C  25,C  26,N   8,C  24)    178.3872         0.030541   
    300. D(C  25,C  26,N   8,Fe  0)     -6.1021         0.030541   
    301. D(C  19,C  26,N   8,C  24)     -1.8559         0.030541   
    302. D(C  19,C  26,N   8,Fe  0)    173.6548         0.030541   
    303. D(H  30,C  27,C   9,N   7)    104.9629         0.014219   
    304. D(H  29,C  27,C   9,C  10)     44.6405         0.014219   
    305. D(H  29,C  27,C   9,N   7)   -135.0094         0.014219   
    306. D(H  28,C  27,C   9,C  10)    164.5911         0.014219   
    307. D(H  28,C  27,C   9,N   7)    -15.0588         0.014219   
    308. D(H  34,C  31,C  24,N   8)     32.4046         0.013251   
    309. D(H  33,C  31,C  24,C  22)    -28.6160         0.013251   
    310. D(H  33,C  31,C  24,N   8)    152.4465         0.013251   
    311. D(H  32,C  31,C  24,C  22)     91.3257         0.013251   
    312. D(H  32,C  31,C  24,N   8)    -87.6118         0.013251   
    313. D(C  36,C  35,O   2,Fe  0)    -10.0912         0.066937   
    314. D(O   1,C  35,O   2,Fe  0)    169.0324         0.066937   
    315. D(C  37,C  36,C  35,O   2)   -163.5278         0.009048   
    316. D(C  37,C  36,C  35,O   1)     17.2795         0.009048   
    317. D(O   3,C  36,C  35,O   2)     14.1283         0.009048   
    318. D(O   3,C  36,C  35,O   1)   -165.0643         0.009048   
    319. D(C  37,C  36,O   3,Fe  0)    166.4990         0.081469   
    320. D(C  35,C  36,O   3,Fe  0)    -11.2545         0.081469   
    321. D(C  46,C  37,C  36,C  35)    -10.6243         0.014220   
    322. D(C  46,C  37,C  36,O   3)    171.8631         0.014220   
    323. D(C  38,C  37,C  36,C  35)    167.7982         0.014220   
    324. D(C  38,C  37,C  36,O   3)     -9.7144         0.014220   
    325. D(C  40,C  38,C  37,C  36)   -176.9086         0.026784   
    326. D(H  39,C  38,C  37,C  46)   -178.3150         0.026784   
    327. D(H  39,C  38,C  37,C  36)      3.1790         0.026784   
    328. D(C  40,C  38,C  37,C  46)      1.5974         0.026784   
    329. D(C  42,C  40,C  38,H  39)    178.7899         0.029603   
    330. D(C  42,C  40,C  38,C  37)     -1.1225         0.029603   
    331. D(H  41,C  40,C  38,H  39)     -1.2903         0.029603   
    332. D(H  41,C  40,C  38,C  37)    178.7973         0.029603   
    333. D(C  44,C  42,C  40,H  41)   -179.9251         0.031374   
    334. D(C  44,C  42,C  40,C  38)     -0.0053         0.031374   
    335. D(H  43,C  42,C  40,H  41)      0.1260         0.031374   
    336. D(H  43,C  42,C  40,C  38)   -179.9543         0.031374   
    337. D(C  46,C  44,C  42,H  43)   -179.3971         0.035728   
    338. D(C  46,C  44,C  42,C  40)      0.6539         0.035728   
    339. D(H  45,C  44,C  42,H  43)      0.5326         0.035728   
    340. D(H  45,C  44,C  42,C  40)   -179.4163         0.035728   
    341. D(H  47,C  46,C  44,H  45)     -0.0158         0.030666   
    342. D(H  47,C  46,C  44,C  42)    179.9139         0.030666   
    343. D(C  37,C  46,C  44,H  45)    179.9113         0.030666   
    344. D(C  37,C  46,C  44,C  42)     -0.1589         0.030666   
    345. D(H  47,C  46,C  37,C  38)    178.9620         0.030151   
    346. D(H  47,C  46,C  37,C  36)     -2.6524         0.030151   
    347. D(C  44,C  46,C  37,C  38)     -0.9651         0.030151   
    348. D(C  44,C  46,C  37,C  36)    177.4205         0.030151   
    349. D(C  49,C  48,O   5,Fe  0)   -176.9238         0.083579   
    350. D(O   4,C  48,O   5,Fe  0)      2.9470         0.083579   
    351. D(O   5,C  48,O   4,Fe  0)     -2.6981         0.093421   
    352. D(O   5,C  48,Fe  0,N   7)    101.9755         0.001549   
    353. D(O   5,C  48,Fe  0,O   4)    177.2991         0.001549   
    354. D(O   5,C  48,Fe  0,O   3)    -93.2678         0.001549   
    355. D(O   5,C  48,Fe  0,O   2)   -146.0142         0.001549   
    356. D(O   4,C  48,Fe  0,N   8)   -163.3011         0.001549   
    357. D(O   4,C  48,Fe  0,N   7)    -75.3236         0.001549   
    358. D(C  49,C  48,O   4,Fe  0)    177.1692         0.093421   
    359. D(O   4,C  48,Fe  0,O   5)   -177.2991         0.001549   
    360. D(O   4,C  48,Fe  0,O   3)     89.4331         0.001549   
    361. D(O   4,C  48,Fe  0,O   2)     36.6868         0.001549   
    362. D(C  50,C  49,C  48,O   4)    -71.4807         0.010430   
    363. D(C  50,C  49,C  48,Fe  0)     85.4257         0.010430   
    364. D(O   6,C  49,C  48,O   5)    -69.3859         0.010430   
    365. D(O   6,C  49,C  48,O   4)    110.7390         0.010430   
    366. D(O   6,C  49,C  48,Fe  0)    -92.3545         0.010430   
    367. D(C  59,C  50,C  49,C  48)      8.3597         0.013813   
    368. D(C  59,C  50,C  49,O   6)   -173.9718         0.013813   
    369. D(C  51,C  50,C  49,C  48)   -169.8918         0.013813   
    370. D(C  51,C  50,C  49,O   6)      7.7767         0.013813   
    371. D(C  53,C  51,C  50,C  59)     -1.7603         0.027598   
    372. D(C  53,C  51,C  50,C  49)    176.5362         0.027598   
    373. D(H  52,C  51,C  50,C  59)    178.1609         0.027598   
    374. D(H  52,C  51,C  50,C  49)     -3.5427         0.027598   
    375. D(C  55,C  53,C  51,H  52)   -177.6356         0.029271   
    376. D(C  55,C  53,C  51,C  50)      2.2856         0.029271   
    377. D(H  54,C  53,C  51,H  52)      2.3912         0.029271   
    378. D(H  54,C  53,C  51,C  50)   -177.6876         0.029271   
    379. D(C  57,C  55,C  53,H  54)    179.4468         0.032002   
    380. D(C  57,C  55,C  53,C  51)     -0.5265         0.032002   
    381. D(H  56,C  55,C  53,H  54)     -0.4681         0.032002   
    382. D(H  56,C  55,C  53,C  51)    179.5587         0.032002   
    383. D(C  59,C  57,C  55,H  56)    178.1870         0.035569   
    384. D(C  59,C  57,C  55,C  53)     -1.7278         0.035569   
    385. D(H  58,C  57,C  55,H  56)     -1.9636         0.035569   
    386. D(H  58,C  57,C  55,C  53)    178.1215         0.035569   
    387. D(H  60,C  59,C  57,H  58)      2.4240         0.028224   
    388. D(H  60,C  59,C  57,C  55)   -177.7267         0.028224   
    389. D(C  50,C  59,C  57,H  58)   -177.6123         0.028224   
    390. D(C  50,C  59,C  57,C  55)      2.2370         0.028224   
    391. D(H  60,C  59,C  50,C  51)    179.4877         0.030283   
    392. D(H  60,C  59,C  50,C  49)      1.2247         0.030283   
    393. D(C  57,C  59,C  50,C  51)     -0.4761         0.030283   
    394. D(C  57,C  59,C  50,C  49)   -178.7390         0.030283   
    -----------------------------------------------------------------

Number of atoms                         .... 61
Number of degrees of freedom            .... 394


         *************************************************************
         *                GEOMETRY OPTIMIZATION CYCLE   1            *
         *************************************************************
---------------------------------
CARTESIAN COORDINATES (ANGSTROEM)
---------------------------------
  Fe    -5.326700    6.009400   10.011100
  O     -8.625000    5.217800   12.240900
  O     -6.737400    5.090500   11.088000
  O     -6.542400    7.639600   11.004000
  O     -3.658500    6.930700   11.360000
  O     -4.128000    7.654600    9.367800
  O     -1.473100    8.801100    9.891400
  N     -4.487100    4.045300    9.539000
  N     -6.066600    5.659200    8.019100
  C     -3.719800    3.261000   10.300300
  C     -3.424300    1.944600    9.912500
  H     -2.869600    1.418800   10.442600
  C     -3.939000    1.439900    8.774300
  H     -3.753000    0.561800    8.533100
  C     -4.754600    2.228700    7.953400
  C     -5.313400    1.766100    6.733500
  H     -5.166300    0.886700    6.469200
  C     -6.048800    2.572000    5.957300
  H     -6.388600    2.251500    5.153400
  C     -6.316800    3.919100    6.350600
  C     -7.086600    4.795800    5.583800
  H     -7.442600    4.517600    4.770600
  C     -7.312400    6.058900    6.035700
  H     -7.815500    6.650800    5.524600
  C     -6.789700    6.474500    7.268800
  C     -4.994600    3.544600    8.381600
  C     -5.809300    4.397500    7.567700
  C     -3.172900    3.808300   11.569100
  H     -3.260500    4.764000   11.569100
  H     -2.245700    3.572500   11.645700
  H     -3.659100    3.442000   12.311500
  C     -7.071000    7.857900    7.763600
  H     -7.864500    7.849100    8.303500
  H     -7.200300    8.445200    7.015100
  H     -6.330100    8.167300    8.289000
  C     -7.633500    5.701700   11.721100
  C     -7.395500    7.221800   11.789500
  C     -8.067200    8.134500   12.734000
  C     -7.547200    9.420900   12.835200
  H     -6.840900    9.683000   12.291300
  C     -8.084600   10.306800   13.744300
  H     -7.727600   11.161500   13.825200
  C     -9.142900    9.929300   14.530000
  H     -9.504400   10.529000   15.142400
  C     -9.663400    8.683900   14.414600
  H    -10.386000    8.437400   14.944600
  C     -9.135900    7.779500   13.524900
  H     -9.502200    6.927800   13.456900
  C     -3.493700    7.720100   10.433200
  C     -2.470000    8.849600   10.565300
  C     -2.775400    9.973500   11.477300
  C     -1.974300   11.106100   11.460800
  H     -1.222000   11.136300   10.914900
  C     -2.294300   12.187000   12.256600
  H     -1.776400   12.958000   12.222000
  C     -3.372700   12.128600   13.097200
  H     -3.579800   12.858700   13.636000
  C     -4.141600   11.013700   13.147800
  H     -4.857800   10.969800   13.740000
  C     -3.860800    9.938800   12.321600
  H     -4.410500    9.188300   12.337500

----------------------------
CARTESIAN COORDINATES (A.U.)
----------------------------
  NO LB      ZA    FRAG     MASS         X           Y           Z
   0 Fe   26.0000    0    55.850  -10.066004   11.356120   18.918237
   1 O     8.0000    0    15.999  -16.298888    9.860213   23.131949
   2 O     8.0000    0    15.999  -12.731841    9.619651   20.953283
   3 O     8.0000    0    15.999  -12.363344   14.436752   20.794546
   4 O     8.0000    0    15.999   -6.913563   13.097125   21.467289
   5 O     8.0000    0    15.999   -7.800789   14.465098   17.702576
   6 O     8.0000    0    15.999   -2.783756   16.631669   18.692037
   7 N     7.0000    0    14.007   -8.479390    7.644509   18.026098
   8 N     7.0000    0    14.007  -11.464213   10.694338   15.153903
   9 C     6.0000    0    12.011   -7.029403    6.162397   19.464746
  10 C     6.0000    0    12.011   -6.470989    3.674761   18.731910
  11 H     1.0000    0     1.008   -5.422758    2.681143   19.733654
  12 C     6.0000    0    12.011   -7.443631    2.721017   16.581024
  13 H     1.0000    0     1.008   -7.092142    1.061648   16.125222
  14 C     6.0000    0    12.011   -8.984892    4.211633   15.029748
  15 C     6.0000    0    12.011  -10.040871    3.337445   12.724471
  16 H     1.0000    0     1.008   -9.762892    1.675620   12.225016
  17 C     6.0000    0    12.011  -11.430575    4.860376   11.257665
  18 H     1.0000    0     1.008  -12.072704    4.254718    9.738515
  19 C     6.0000    0    12.011  -11.937022    7.406026   12.000895
  20 C     6.0000    0    12.011  -13.391733    9.062749   10.551853
  21 H     1.0000    0     1.008  -14.064476    8.537027    9.015127
  22 C     6.0000    0    12.011  -13.818433   11.449662   11.405820
  23 H     1.0000    0     1.008  -14.769155   12.568191   10.439981
  24 C     6.0000    0    12.011  -12.830674   12.235032   13.736041
  25 C     6.0000    0    12.011   -9.438426    6.698323   15.838929
  26 C     6.0000    0    12.011  -10.977986    8.310071   14.300880
  27 C     6.0000    0    12.011   -5.995912    7.196644   21.862431
  28 H     1.0000    0     1.008   -6.161452    9.002655   21.862431
  29 H     1.0000    0     1.008   -4.243758    6.751047   22.007184
  30 H     1.0000    0     1.008   -6.914697    6.504437   23.265363
  31 C     6.0000    0    12.011  -13.362253   14.849279   14.671078
  32 H     1.0000    0     1.008  -14.861751   14.832649   15.691341
  33 H     1.0000    0     1.008  -13.606595   15.959115   13.256618
  34 H     1.0000    0     1.008  -11.962155   15.433960   15.663940
  35 C     6.0000    0    12.011  -14.425224   10.774651   22.149669
  36 C     6.0000    0    12.011  -13.975470   13.647224   22.278926
  37 C     6.0000    0    12.011  -15.244799   15.371977   24.063773
  38 C     6.0000    0    12.011  -14.262141   17.802921   24.255013
  39 H     1.0000    0     1.008  -12.927428   18.298218   23.227191
  40 C     6.0000    0    12.011  -15.277680   19.477029   25.972963
  41 H     1.0000    0     1.008  -14.603048   21.092178   26.125842
  42 C     6.0000    0    12.011  -17.277577   18.763658   27.457721
  43 H     1.0000    0     1.008  -17.960713   19.896926   28.614989
  44 C     6.0000    0    12.011  -18.261180   16.410193   27.239646
  45 H     1.0000    0     1.008  -19.626696   15.944375   28.241201
  46 C     6.0000    0    12.011  -17.264349   14.701124   25.558357
  47 H     1.0000    0     1.008  -17.956556   13.091645   25.429856
  48 C     6.0000    0    12.011   -6.602136   14.588875   19.715891
  49 C     6.0000    0    12.011   -4.667624   16.723320   19.965524
  50 C     6.0000    0    12.011   -5.244746   18.847184   21.688954
  51 C     6.0000    0    12.011   -3.730886   20.987487   21.657773
  52 H     1.0000    0     1.008   -2.309245   21.044557   20.626172
  53 C     6.0000    0    12.011   -4.335599   23.030092   23.161617
  54 H     1.0000    0     1.008   -3.356910   24.487071   23.096233
  55 C     6.0000    0    12.011   -6.373479   22.919732   24.750121
  56 H     1.0000    0     1.008   -6.764842   24.299421   25.768306
  57 C     6.0000    0    12.011   -7.826490   20.812877   24.845741
  58 H     1.0000    0     1.008   -9.179912   20.729918   25.964837
  59 C     6.0000    0    12.011   -7.295855   18.781610   23.284450
  60 H     1.0000    0     1.008   -8.334637   17.363371   23.314496

--------------------------------
INTERNAL COORDINATES (ANGSTROEM)
--------------------------------
 Fe     0   0   0     0.000000000000     0.00000000     0.00000000
 O      1   0   0     4.059239028439     0.00000000     0.00000000
 O      1   2   0     1.998540795180    16.42256079     0.00000000
 O      1   2   3     2.263035337771    57.51846414   194.66364455
 O      1   2   3     2.334783960027   109.88597845   259.55773962
 O      1   2   3     2.134806693825   140.53933856   196.26242797
 O      6   1   2     2.938896599066   138.95531839   108.14194028
 N      1   2   3     2.187577514055   104.79217127     8.26325141
 N      1   2   3     2.153637864173   101.37449296    88.33680699
 C      8   1   2     1.335460021865   128.66636202   279.17228381
 C     10   8   1     1.403787038692   120.94349920   170.82418386
 H     11  10   8     0.930141784891   119.88068043   178.35200587
 C     11  10   8     1.347270358911   120.28189104   358.46203178
 H     13  11  10     0.929426193950   119.78269051   181.25807379
 C     13  11  10     1.400459071162   120.44392573     1.13251904
 C     15  13  11     1.419299901360   123.33440352   179.10200853
 H     16  15  13     0.929966268205   119.35447707     2.46678954
 C     16  15  13     1.338945260270   121.22038353   182.41818964
 H     18  16  15     0.929752386391   119.63616331   178.65082460
 C     18  16  15     1.428701263386   120.72756172   358.66753628
 C     20  18  16     1.396129352890   122.97812756   180.56375323
 H     21  20  18     0.930282473231   120.22006145   359.13363574
 C     21  20  18     1.360375264403   119.48001639   179.08764243
 H     23  21  20     0.929880868714   119.88340237   179.24438602
 C      9   1   2     1.323078905432   127.74057127    80.11307368
 C      8   1   2     1.359349660683   111.78767992    89.85689548
 C      9   1   2     1.364497028212   113.05179151   265.07802862
 C     10   8   1     1.486099034385   118.80743347   350.47162713
 H     28  10   8     0.959706335292   109.46014028   344.94115560
 H     28  10   8     0.959775515420   109.46192963   224.99057204
 H     28  10   8     0.960064523873   109.47099472   104.96292016
 C     25   9   1     1.495911859034   119.01674404     5.25817257
 H     32  25   9     0.959797739110   109.45383423   272.38817360
 H     32  25   9     0.960152086911   109.45926734   152.44649737
 H     32  25   9     0.959534433983   109.51852200    32.40463909
 C      2   1   3     1.219599729419    13.57368767   143.77018919
 C      4   1   2     1.232617823983   114.03068080     9.52496226
 C     37   4   1     1.475222840794   120.89227981   166.49897107
 C     38  37   4     1.391210408242   116.64498057   350.28555596
 H     39  38  37     0.929184217473   120.15639450     3.17904559
 C     39  38  37     1.378434031791   119.77011217   183.09135418
 H     41  39  38     0.929788094138   119.89925406   178.79732884
 C     41  39  38     1.371068791126   120.12677251   358.87753181
 H     43  41  39     0.930245182734   119.98113641   180.04568996
 C     43  41  39     1.354717154981   120.05731588     0.00000000
 H     45  43  41     0.929415413042   119.60118611   180.58365963
 C     45  43  41     1.373958405484   120.84907985     0.65392545
 H     47  45  43     0.929619588864   119.94430716   179.91393510
 C      5   1   2     1.228523357531    85.04060456   223.62891869
 C      7   6   1     1.204285294272    50.77308439   284.27746868
 C     50   7   6     1.479244526777   123.12747339   209.37205729
 C     51  50   7     1.387377461256   119.58468122     7.77673082
 H     52  51  50     0.929986096670   120.03890237   356.45734247
 C     52  51  50     1.379870446817   119.91516186   176.53615877
 H     54  52  51     0.929439922749   119.94109996   182.31240760
 C     54  52  51     1.368563290462   120.23475690     2.28561378
 H     56  54  52     0.930721150506   119.83074894   179.55868453
 C     56  54  52     1.355274724917   120.33717788   359.47352592
 H     58  56  54     0.930360408659   119.95533876   178.12151633
 C     51  50   7     1.375550704264   121.47741272   186.02823389
 H     60  51  50     0.930415579190   119.80345786     1.22474283

---------------------------
INTERNAL COORDINATES (A.U.)
---------------------------
 Fe     0   0   0     0.000000000000     0.00000000     0.00000000
 O      1   0   0     7.670850075874     0.00000000     0.00000000
 O      1   2   0     3.776694770360    16.42256079     0.00000000
 O      1   2   3     4.276517019773    57.51846414   194.66364455
 O      1   2   3     4.412102266323   109.88597845   259.55773962
 O      1   2   3     4.034200000191   140.53933856   196.26242797
 O      6   1   2     5.553709708147   138.95531839   108.14194028
 N      1   2   3     4.133922398289   104.79217127     8.26325141
 N      1   2   3     4.069785754930   101.37449296    88.33680699
 C      8   1   2     2.523653704126   128.66636202   279.17228381
 C     10   8   1     2.652773053476   120.94349920   170.82418386
 H     11  10   8     1.757713239160   119.88068043   178.35200587
 C     11  10   8     2.545972006691   120.28189104   358.46203178
 H     13  11  10     1.756360968258   119.78269051   181.25807379
 C     13  11  10     2.646484106262   120.44392573     1.13251904
 C     15  13  11     2.682088115472   123.33440352   179.10200853
 H     16  15  13     1.757381560693   119.35447707     2.46678954
 C     16  15  13     2.530239850223   121.22038353   182.41818964
 H     18  16  15     1.756977382639   119.63616331   178.65082460
 C     18  16  15     2.699854114986   120.72756172   358.66753628
 C     20  18  16     2.638302124490   122.97812756   180.56375323
 H     21  20  18     1.757979101593   120.22006145   359.13363574
 C     21  20  18     2.570736689083   119.48001639   179.08764243
 H     23  21  20     1.757220179042   119.88340237   179.24438602
 C      9   1   2     2.500256784835   127.74057127    80.11307368
 C      8   1   2     2.568798578930   111.78767992    89.85689548
 C      9   1   2     2.578525693871   113.05179151   265.07802862
 C     10   8   1     2.808320182872   118.80743347   350.47162713
 H     28  10   8     1.813582142691   109.46014028   344.94115560
 H     28  10   8     1.813712874187   109.46192963   224.99057204
 H     28  10   8     1.814259021014   109.47099472   104.96292016
 C     25   9   1     2.826863734060   119.01674404     5.25817257
 H     32  25   9     1.813754870874   109.45383423   272.38817360
 H     32  25   9     1.814424491175   109.45926734   152.44649737
 H     32  25   9     1.813257296296   109.51852200    32.40463909
 C      2   1   3     2.304709481607    13.57368767   143.77018919
 C      4   1   2     2.329310115117   114.03068080     9.52496226
 C     37   4   1     2.787767155606   120.89227981   166.49897107
 C     38  37   4     2.629006666238   116.64498057   350.28555596
 H     39  38  37     1.755903698985   120.15639450     3.17904559
 C     39  38  37     2.604862813762   119.77011217   183.09135418
 H     41  39  38     1.757044860501   119.89925406   178.79732884
 C     41  39  38     2.590944525995   120.12677251   358.87753181
 H     43  41  39     1.757908632767   119.98113641   180.04568996
 C     43  41  39     2.560044411839   120.05731588     0.00000000
 H     45  43  41     1.756340595295   119.60118611   180.58365963
 C     45  43  41     2.596405105764   120.84907985     0.65392545
 H     47  45  43     1.756726431682   119.94430716   179.91393510
 C      5   1   2     2.321572694860    85.04060456   223.62891869
 C      7   6   1     2.275769393283    50.77308439   284.27746868
 C     50   7   6     2.795367040711   123.12747339   209.37205729
 C     51  50   7     2.621763446148   119.58468122     7.77673082
 H     52  51  50     1.757419031061   120.03890237   356.45734247
 C     52  51  50     2.607577244776   119.91516186   176.53615877
 H     54  52  51     1.756386911929   119.94109996   182.31240760
 C     54  52  51     2.586209815911   120.23475690     2.28561378
 H     56  54  52     1.758808081505   119.83074894   179.55868453
 C     56  54  52     2.561098066319   120.33717788   359.47352592
 H     58  56  54     1.758126378208   119.95533876   178.12151633
 C     51  50   7     2.599414114381   121.47741272   186.02823389
 H     60  51  50     1.758230635403   119.80345786     1.22474283

---------------------
BASIS SET INFORMATION
---------------------
There are 5 groups of distinct atoms

 Group   1 Type Fe  : 17s11p7d1f contracted to 6s4p4d1f pattern {842111/6311/4111/1}
 Group   2 Type O   : 11s6p2d1f contracted to 5s3p2d1f pattern {62111/411/11/1}
 Group   3 Type N   : 11s6p2d1f contracted to 5s3p2d1f pattern {62111/411/11/1}
 Group   4 Type C   : 11s6p2d1f contracted to 5s3p2d1f pattern {62111/411/11/1}
 Group   5 Type H   : 5s1p contracted to 3s1p pattern {311/1}

Atom   0Fe   basis set group =>   1
Atom   1O    basis set group =>   2
Atom   2O    basis set group =>   2
Atom   3O    basis set group =>   2
Atom   4O    basis set group =>   2
Atom   5O    basis set group =>   2
Atom   6O    basis set group =>   2
Atom   7N    basis set group =>   3
Atom   8N    basis set group =>   3
Atom   9C    basis set group =>   4
Atom  10C    basis set group =>   4
Atom  11H    basis set group =>   5
Atom  12C    basis set group =>   4
Atom  13H    basis set group =>   5
Atom  14C    basis set group =>   4
Atom  15C    basis set group =>   4
Atom  16H    basis set group =>   5
Atom  17C    basis set group =>   4
Atom  18H    basis set group =>   5
Atom  19C    basis set group =>   4
Atom  20C    basis set group =>   4
Atom  21H    basis set group =>   5
Atom  22C    basis set group =>   4
Atom  23H    basis set group =>   5
Atom  24C    basis set group =>   4
Atom  25C    basis set group =>   4
Atom  26C    basis set group =>   4
Atom  27C    basis set group =>   4
Atom  28H    basis set group =>   5
Atom  29H    basis set group =>   5
Atom  30H    basis set group =>   5
Atom  31C    basis set group =>   4
Atom  32H    basis set group =>   5
Atom  33H    basis set group =>   5
Atom  34H    basis set group =>   5
Atom  35C    basis set group =>   4
Atom  36C    basis set group =>   4
Atom  37C    basis set group =>   4
Atom  38C    basis set group =>   4
Atom  39H    basis set group =>   5
Atom  40C    basis set group =>   4
Atom  41H    basis set group =>   5
Atom  42C    basis set group =>   4
Atom  43H    basis set group =>   5
Atom  44C    basis set group =>   4
Atom  45H    basis set group =>   5
Atom  46C    basis set group =>   4
Atom  47H    basis set group =>   5
Atom  48C    basis set group =>   4
Atom  49C    basis set group =>   4
Atom  50C    basis set group =>   4
Atom  51C    basis set group =>   4
Atom  52H    basis set group =>   5
Atom  53C    basis set group =>   4
Atom  54H    basis set group =>   5
Atom  55C    basis set group =>   4
Atom  56H    basis set group =>   5
Atom  57C    basis set group =>   4
Atom  58H    basis set group =>   5
Atom  59C    basis set group =>   4
Atom  60H    basis set group =>   5
---------------------------------
AUXILIARY/J BASIS SET INFORMATION
---------------------------------
There are 5 groups of distinct atoms

 Group   1 Type Fe  : 19s5p5d3f3g contracted to 8s5p5d2f3g pattern {121111111/11111/11111/21/111}
 Group   2 Type O   : 12s5p4d2f1g contracted to 6s4p3d1f1g pattern {711111/2111/211/2/1}
 Group   3 Type N   : 12s5p4d2f1g contracted to 6s4p3d1f1g pattern {711111/2111/211/2/1}
 Group   4 Type C   : 12s5p4d2f1g contracted to 6s4p3d1f1g pattern {711111/2111/211/2/1}
 Group   5 Type H   : 5s2p1d contracted to 3s1p1d pattern {311/2/1}

Atom   0Fe   basis set group =>   1
Atom   1O    basis set group =>   2
Atom   2O    basis set group =>   2
Atom   3O    basis set group =>   2
Atom   4O    basis set group =>   2
Atom   5O    basis set group =>   2
Atom   6O    basis set group =>   2
Atom   7N    basis set group =>   3
Atom   8N    basis set group =>   3
Atom   9C    basis set group =>   4
Atom  10C    basis set group =>   4
Atom  11H    basis set group =>   5
Atom  12C    basis set group =>   4
Atom  13H    basis set group =>   5
Atom  14C    basis set group =>   4
Atom  15C    basis set group =>   4
Atom  16H    basis set group =>   5
Atom  17C    basis set group =>   4
Atom  18H    basis set group =>   5
Atom  19C    basis set group =>   4
Atom  20C    basis set group =>   4
Atom  21H    basis set group =>   5
Atom  22C    basis set group =>   4
Atom  23H    basis set group =>   5
Atom  24C    basis set group =>   4
Atom  25C    basis set group =>   4
Atom  26C    basis set group =>   4
Atom  27C    basis set group =>   4
Atom  28H    basis set group =>   5
Atom  29H    basis set group =>   5
Atom  30H    basis set group =>   5
Atom  31C    basis set group =>   4
Atom  32H    basis set group =>   5
Atom  33H    basis set group =>   5
Atom  34H    basis set group =>   5
Atom  35C    basis set group =>   4
Atom  36C    basis set group =>   4
Atom  37C    basis set group =>   4
Atom  38C    basis set group =>   4
Atom  39H    basis set group =>   5
Atom  40C    basis set group =>   4
Atom  41H    basis set group =>   5
Atom  42C    basis set group =>   4
Atom  43H    basis set group =>   5
Atom  44C    basis set group =>   4
Atom  45H    basis set group =>   5
Atom  46C    basis set group =>   4
Atom  47H    basis set group =>   5
Atom  48C    basis set group =>   4
Atom  49C    basis set group =>   4
Atom  50C    basis set group =>   4
Atom  51C    basis set group =>   4
Atom  52H    basis set group =>   5
Atom  53C    basis set group =>   4
Atom  54H    basis set group =>   5
Atom  55C    basis set group =>   4
Atom  56H    basis set group =>   5
Atom  57C    basis set group =>   4
Atom  58H    basis set group =>   5
Atom  59C    basis set group =>   4
Atom  60H    basis set group =>   5


           ************************************************************
           *        Program running with 16 parallel MPI-processes    *
           *              working on a common directory               *
           ************************************************************
------------------------------------------------------------------------------
                             ORCA STARTUP CALCULATIONS
                           -- RI-GTO INTEGRALS CHOSEN --
------------------------------------------------------------------------------
------------------------------------------------------------------------------
                   ___                                                        
                  /   \      - P O W E R E D   B Y -                         
                 /     \                                                     
                 |  |  |   _    _      __       _____    __    __             
                 |  |  |  | |  | |    /  \     |  _  \  |  |  /  |          
                  \  \/   | |  | |   /    \    | | | |  |  | /  /          
                 / \  \   | |__| |  /  /\  \   | |_| |  |  |/  /          
                |  |  |   |  __  | /  /__\  \  |    /   |      \           
                |  |  |   | |  | | |   __   |  |    \   |  |\   \          
                \     /   | |  | | |  |  |  |  | |\  \  |  | \   \       
                 \___/    |_|  |_| |__|  |__|  |_| \__\ |__|  \__/        
                                                                              
                      - O R C A' S   B I G   F R I E N D -                    
                                      &                                       
                       - I N T E G R A L  F E E D E R -                       
                                                                              
 v1 FN, 2020, v2 2021, v3 2022-2024                                           
------------------------------------------------------------------------------


----------------------
SHARK INTEGRAL PACKAGE
----------------------

Number of atoms                             ...     61
Number of basis functions                   ...   1355
Number of shells                            ...    521
Maximum angular momentum                    ...      3
Integral batch strategy                     ... SHARK/LIBINT Hybrid
RI-J (if used) integral strategy            ... SPLIT-RIJ (Revised 2003 algorithm where possible)
Printlevel                                  ...      1
Contraction scheme used                     ... SEGMENTED contraction
Prescreening option                         ... SCHWARTZ
   Thresh                                   ... 2.500e-11
   Tcut                                     ... 2.500e-12
   Tpresel                                  ... 2.500e-12 
Coulomb Range Separation                    ... NOT USED
Exchange Range Separation                   ... NOT USED
Multipole approximations                    ... NOT USED
Finite Nucleus Model                        ... NOT USED
CABS basis                                  ... NOT available
Auxiliary Coulomb fitting basis             ... AVAILABLE
   # of basis functions in Aux-J            ...   2193
   # of shells in Aux-J                     ...    703
   Maximum angular momentum in Aux-J        ...      4
Auxiliary J/K fitting basis                 ... NOT available
Auxiliary Correlation fitting basis         ... NOT available
Auxiliary 'external' fitting basis          ... NOT available

Checking pre-screening integrals            ... done (  0.0 sec) Dimension = 521
Check shell pair data                       ... done (  0.0 sec)
Shell pair information
Shell pair cut-off parameter TPreSel        ...   2.5e-12
Total number of shell pairs                 ...    135981
Shell pairs after pre-screening             ...     75842
Total number of primitive shell pairs       ...    432017
Primitive shell pairs kept                  ...    149328
          la=0 lb=0:  18327 shell pairs
          la=1 lb=0:  22036 shell pairs
          la=1 lb=1:   6624 shell pairs
          la=2 lb=0:  10966 shell pairs
          la=2 lb=1:   6728 shell pairs
          la=2 lb=2:   1675 shell pairs
          la=3 lb=0:   4747 shell pairs
          la=3 lb=1:   3025 shell pairs
          la=3 lb=2:   1408 shell pairs
          la=3 lb=3:    306 shell pairs

Calculating one electron integrals          ... done (  0.1 sec)
done (  0.3 sec)
Calculating Nuclear repulsion               ... done (  0.0 sec) ENN=   4982.402159454725 Eh

Diagonalization of the overlap matrix:
Smallest eigenvalue                        ... 2.550e-06
Time for diagonalization                   ...    0.174 sec
Threshold for overlap eigenvalues          ... 1.000e-07
Number of eigenvalues below threshold      ... 0
Time for construction of square roots      ...    0.191 sec
Total time needed                          ...    0.392 sec

-------------------
DFT GRID GENERATION
-------------------

General Integration Accuracy     IntAcc      ... 4.959
Radial Grid Type                 RadialGrid  ... OptM3 with GC (2021)
Angular Grid (max. ang.)         AngularGrid ... 6 (Lebedev-590)
Angular grid pruning method      GridPruning ... 4 (adaptive)
Weight generation scheme         WeightScheme... mBecke (2022)
Basis function cutoff            BFCut       ... 1.0000e-11
Integration weight cutoff        WCut        ... 1.0000e-14
Partially contracted basis set               ... off
Rotationally invariant grid construction     ... off
Angular grids for H and He will be reduced by one unit
Core-polarized basis detected: some atoms will have their core
                               angular grid increased.

Total number of grid points                  ...   750078
Total number of batches                      ...    11747
Average number of points per batch           ...       63
Average number of grid points per atom       ...    12296

--------------------
COSX GRID GENERATION
--------------------

GRIDX 1
-------
General Integration Accuracy     IntAcc      ... 4.020
Radial Grid Type                 RadialGrid  ... OptM3 with GC (2021)
Angular Grid (max. ang.)         AngularGrid ... 2 (Lebedev-110)
Angular grid pruning method      GridPruning ... 4 (adaptive)
Weight generation scheme         WeightScheme... mBecke (2022)
Basis function cutoff            BFCut       ... 1.0000e-11
Integration weight cutoff        WCut        ... 1.0000e-14
Partially contracted basis set               ... on
Rotationally invariant grid construction     ... off
Angular grids for H and He will be reduced by one unit
Core-polarized basis detected: some atoms will have their core
                               angular grid increased.

Total number of grid points                  ...    87340
Total number of batches                      ...      717
Average number of points per batch           ...      121
Average number of grid points per atom       ...     1432
UseSFitting                                  ... on

GRIDX 2
-------
General Integration Accuracy     IntAcc      ... 4.338
Radial Grid Type                 RadialGrid  ... OptM3 with GC (2021)
Angular Grid (max. ang.)         AngularGrid ... 3 (Lebedev-194)
Angular grid pruning method      GridPruning ... 4 (adaptive)
Weight generation scheme         WeightScheme... mBecke (2022)
Basis function cutoff            BFCut       ... 1.0000e-11
Integration weight cutoff        WCut        ... 1.0000e-14
Partially contracted basis set               ... on
Rotationally invariant grid construction     ... off
Angular grids for H and He will be reduced by one unit
Core-polarized basis detected: some atoms will have their core
                               angular grid increased.

Total number of grid points                  ...   185025
Total number of batches                      ...     1481
Average number of points per batch           ...      124
Average number of grid points per atom       ...     3033
UseSFitting                                  ... on

GRIDX 3
-------
General Integration Accuracy     IntAcc      ... 4.871
Radial Grid Type                 RadialGrid  ... OptM3 with GC (2021)
Angular Grid (max. ang.)         AngularGrid ... 4 (Lebedev-302)
Angular grid pruning method      GridPruning ... 4 (adaptive)
Weight generation scheme         WeightScheme... mBecke (2022)
Basis function cutoff            BFCut       ... 1.0000e-11
Integration weight cutoff        WCut        ... 1.0000e-14
Partially contracted basis set               ... on
Rotationally invariant grid construction     ... off
Angular grids for H and He will be reduced by one unit
Core-polarized basis detected: some atoms will have their core
                               angular grid increased.

Total number of grid points                  ...   340914
Total number of batches                      ...     2692
Average number of points per batch           ...      126
Average number of grid points per atom       ...     5589
UseSFitting                                  ... on
Initializing property integral containers    ... done (  0.0 sec)

SHARK setup successfully completed in  11.9 seconds

Maximum memory used throughout the entire STARTUP-calculation: 243.3 MB


           ************************************************************
           *        Program running with 16 parallel MPI-processes    *
           *              working on a common directory               *
           ************************************************************
-------------------------------------------------------------------------------
                                 ORCA GUESS
                   Start orbitals & Density for SCF / CASSCF
-------------------------------------------------------------------------------

------------
SCF SETTINGS
------------
Hamiltonian:
 Density Functional     Method          .... DFT(GTOs)
 Exchange Functional    Exchange        .... PBE
   PBE kappa parameter   XKappa         ....  0.804000
   PBE mue parameter    XMuePBE         ....  0.219520
 Correlation Functional Correlation     .... PBE
   PBE beta parameter  CBetaPBE         ....  0.066725
 LDA part of GGA corr.  LDAOpt          .... PW91-LDA
 Gradients option       PostSCFGGA      .... off
 Hybrid DFT is turned on
   Fraction HF Exchange ScalHFX         ....  0.250000
   Scaling of DF-GGA-X  ScalDFX         ....  0.750000
   Scaling of DF-GGA-C  ScalDFC         ....  1.000000
   Scaling of DF-LDA-C  ScalLDAC        ....  1.000000
   Perturbative correction              ....  0.000000
   NL short-range parameter             ....  6.900000
 RI-approximation to the Coulomb term is turned on
   Number of AuxJ basis functions       .... 2193
   RIJ-COSX (HFX calculated with COS-X)).... on


General Settings:
 Integral files         IntName         .... OCAHEI-S5
 Hartree-Fock type      HFTyp           .... RHF
 Total Charge           Charge          ....    0
 Multiplicity           Mult            ....    1
 Number of Electrons    NEL             ....  290
 Basis Dimension        Dim             .... 1355
 Nuclear Repulsion      ENuc            ....   4982.4021594547 Eh

Convergence Acceleration:
 AO-DIIS                CNVDIIS         .... on
   Start iteration      DIISMaxIt       ....    12
   Startup error        DIISStart       ....  0.200000
   # of expansion vecs  DIISMaxEq       ....     5
   Bias factor          DIISBfac        ....   1.050
   Max. coefficient     DIISMaxC        ....  10.000
 MO-DIIS                CNVKDIIS        .... off
 Trust-Rad. Augm. Hess. CNVTRAH         .... auto
   Auto Start mean grad. ratio tolernc. ....  1.125000
   Auto Start start iteration           ....    50
   Auto Start num. interpolation iter.  ....    10
   Max. Number of Micro iterations      ....    24
   Max. Number of Macro iterations      .... Maxiter - #DIIS iter
   Number of Davidson start vectors     ....     2
   Converg. threshold    (grad. norm)   ....   1.000e-05
   Grad. Scal. Fac. for Micro threshold ....   0.100
   Minimum threshold for Micro iter.    ....   1.000e-02
   NR start threshold (gradient norm)   ....   1.000e-04
   Initial trust radius                 ....   0.400
   Minimum AH scaling param. (alpha)    ....   1.000
   Maximum AH scaling param. (alpha)    .... 1000.000
   Quad. conv. algorithm                .... NR
   White noise on init. David. guess    .... on
   Maximum white noise                  ....   0.010
   Pseudo random numbers                .... off
   Inactive MOs                         .... canonical
   Orbital update algorithm             .... Taylor
   Preconditioner                       .... Diag
   Full preconditioner red. dimension   ....   250
 SOSCF                  CNVSOSCF        .... on
   Start iteration      SOSCFMaxIt      ....   150
   Startup grad/error   SOSCFStart      ....  0.003300
   Hessian update       SOSCFHessUp     .... L-BFGS
 Level Shifting         CNVShift        .... on
   Level shift para.    LevelShift      ....    0.2500
   Turn off err/grad.   ShiftErr        ....    0.0010
 Zerner damping         CNVZerner       .... off
 Static damping         CNVDamp         .... on
   Fraction old density DampFac         ....    0.7000
   Max. Damping (<1)    DampMax         ....    0.9800
   Min. Damping (>=0)   DampMin         ....    0.0000
   Turn off err/grad.   DampErr         ....    0.1000

SCF Procedure:
 Maximum # iterations   MaxIter         ....   125
 SCF integral mode      SCFMode         .... Direct
   Integral package                     .... SHARK and LIBINT hybrid scheme
 Reset frequency        DirectResetFreq ....    20
 Integral Threshold     Thresh          ....  2.500e-11 Eh
 Primitive CutOff       TCut            ....  2.500e-12 Eh

Convergence Tolerance:
 Convergence Check Mode ConvCheckMode   .... Total+1el-Energy
 Convergence forced     ConvForced      .... 0
 Energy Change          TolE            ....  1.000e-08 Eh
 1-El. energy change                    ....  1.000e-05 Eh
 Orbital Gradient       TolG            ....  1.000e-05
 Orbital Rotation angle TolX            ....  1.000e-05
 DIIS Error             TolErr          ....  5.000e-07

------------------------------
INITIAL GUESS: MODEL POTENTIAL
------------------------------
Loading Hartree-Fock densities                     ... done
Calculating cut-offs                               ... done
Initializing the effective Hamiltonian             ... done
Setting up the integral package (SHARK)            ... done
done (   0.6 sec)
Making the grid                                    ... done (   0.4 sec)
Mapping shells                                     ... done
Starting the XC term evaluation                    ... done (   0.3 sec)
  promolecular density results
     # of electrons  =    289.992920691
     EX              =   -276.879098767
[...]
168:   3187.49   0.000053    0.27  0.000005  ( 0.001159 -0.001555 -0.001206)
169:   3190.59   0.000021    0.11  0.000002  ( 0.000911 -0.000651  0.000900)
170:   3195.24   0.000588    2.97  0.000057  ( 0.004172 -0.004370 -0.004572)
171:   3195.82   0.000370    1.87  0.000036  (-0.000448  0.001059  0.005898)
172:   3197.98   0.001559    7.88  0.000152  (-0.011876 -0.002274  0.002426)
173:   3200.30   0.001616    8.17  0.000158  ( 0.002889  0.010991 -0.005329)
174:   3206.51   0.001295    6.54  0.000126  (-0.000296 -0.009720 -0.005607)
175:   3207.68   0.002925   14.78  0.000285  ( 0.004369 -0.008186 -0.014087)
176:   3210.16   0.002433   12.30  0.000237  ( 0.009520 -0.004506 -0.011208)
177:   3215.28   0.000366    1.85  0.000036  (-0.005523  0.000421  0.002206)
178:   3217.88   0.002154   10.89  0.000209  (-0.006135 -0.011669 -0.005927)
179:   3218.63   0.001764    8.91  0.000171  (-0.001022  0.012705  0.002925)
180:   3218.84   0.002112   10.67  0.000205  ( 0.010028 -0.006279  0.008051)
181:   3218.93   0.000315    1.59  0.000031  (-0.002895  0.004624  0.000866)
182:   3236.91   0.005500   27.80  0.000530  (-0.005185  0.021377  0.006812)

* The epsilon (eps) is given for a Dirac delta lineshape.
** The dipole moment derivative (T) already includes vibrational overlap.

The first frequency considered to be a vibration is 6
The total number of vibrations considered is 177


--------------------------
THERMOCHEMISTRY AT 298.15K
--------------------------

Temperature         ...   298.15 K
Pressure            ...     1.00 atm
Total Mass          ...   562.36 AMU
Quasi RRHO          ...     True
Cut-Off Frequency   ...     1.00 cm^-1

Throughout the following assumptions are being made:
  (1) The electronic state is orbitally nondegenerate
  (2) There are no thermally accessible electronically excited states
  (3) Hindered rotations indicated by low frequency modes are not
      treated as such but are treated as vibrations and this may
      cause some error
  (4) All equations used are the standard statistical mechanics
      equations for an ideal gas
  (5) All vibrations are strictly harmonic

freq.      10.89  E(vib)   ...       0.58 
freq.      18.39  E(vib)   ...       0.57 
freq.      23.28  E(vib)   ...       0.56 
freq.      24.25  E(vib)   ...       0.56 
freq.      28.37  E(vib)   ...       0.55 
freq.      36.09  E(vib)   ...       0.54 
freq.      44.43  E(vib)   ...       0.53 
freq.      48.24  E(vib)   ...       0.53 
freq.      70.94  E(vib)   ...       0.50 
freq.      76.22  E(vib)   ...       0.49 
freq.      90.29  E(vib)   ...       0.47 
freq.     118.05  E(vib)   ...       0.44 
freq.     122.30  E(vib)   ...       0.43 
freq.     134.67  E(vib)   ...       0.42 
freq.     137.80  E(vib)   ...       0.42 
freq.     145.14  E(vib)   ...       0.41 
freq.     150.25  E(vib)   ...       0.40 
freq.     157.29  E(vib)   ...       0.40 
freq.     171.02  E(vib)   ...       0.38 
freq.     190.27  E(vib)   ...       0.36 
freq.     196.89  E(vib)   ...       0.35 
freq.     209.84  E(vib)   ...       0.34 
freq.     220.41  E(vib)   ...       0.33 
freq.     225.11  E(vib)   ...       0.33 
freq.     245.12  E(vib)   ...       0.31 
freq.     253.92  E(vib)   ...       0.30 
freq.     264.59  E(vib)   ...       0.29 
freq.     288.48  E(vib)   ...       0.27 
freq.     294.98  E(vib)   ...       0.27 
freq.     304.71  E(vib)   ...       0.26 
freq.     318.08  E(vib)   ...       0.25 
freq.     330.72  E(vib)   ...       0.24 
freq.     348.51  E(vib)   ...       0.23 
freq.     352.51  E(vib)   ...       0.22 
freq.     358.37  E(vib)   ...       0.22 
freq.     394.57  E(vib)   ...       0.20 
freq.     406.39  E(vib)   ...       0.19 
freq.     411.75  E(vib)   ...       0.19 
freq.     412.65  E(vib)   ...       0.19 
freq.     415.75  E(vib)   ...       0.18 
freq.     435.18  E(vib)   ...       0.17 
freq.     444.12  E(vib)   ...       0.17 
freq.     451.43  E(vib)   ...       0.16 
freq.     457.23  E(vib)   ...       0.16 
freq.     462.84  E(vib)   ...       0.16 
freq.     465.45  E(vib)   ...       0.16 
freq.     472.07  E(vib)   ...       0.15 
freq.     504.10  E(vib)   ...       0.14 
freq.     509.60  E(vib)   ...       0.14 
freq.     522.22  E(vib)   ...       0.13 
freq.     533.34  E(vib)   ...       0.13 
freq.     539.59  E(vib)   ...       0.12 
freq.     573.06  E(vib)   ...       0.11 
freq.     603.05  E(vib)   ...       0.10 
freq.     614.77  E(vib)   ...       0.10 
freq.     626.87  E(vib)   ...       0.09 
freq.     631.11  E(vib)   ...       0.09 
freq.     658.63  E(vib)   ...       0.08 
freq.     671.18  E(vib)   ...       0.08 
freq.     696.95  E(vib)   ...       0.07 
freq.     698.80  E(vib)   ...       0.07 
freq.     702.65  E(vib)   ...       0.07 
freq.     704.27  E(vib)   ...       0.07 
freq.     709.27  E(vib)   ...       0.07 
freq.     713.16  E(vib)   ...       0.07 
freq.     728.96  E(vib)   ...       0.06 
freq.     758.38  E(vib)   ...       0.06 
freq.     772.90  E(vib)   ...       0.05 
freq.     781.17  E(vib)   ...       0.05 
freq.     795.90  E(vib)   ...       0.05 
freq.     810.05  E(vib)   ...       0.05 
freq.     830.56  E(vib)   ...       0.04 
freq.     835.97  E(vib)   ...       0.04 
freq.     839.68  E(vib)   ...       0.04 
freq.     843.45  E(vib)   ...       0.04 
freq.     864.20  E(vib)   ...       0.04 
freq.     868.24  E(vib)   ...       0.04 
freq.     868.30  E(vib)   ...       0.04 
freq.     868.97  E(vib)   ...       0.04 
freq.     871.36  E(vib)   ...       0.04 
freq.     875.86  E(vib)   ...       0.04 
freq.     934.68  E(vib)   ...       0.03 
freq.     961.10  E(vib)   ...       0.03 
freq.     963.64  E(vib)   ...       0.03 
freq.     963.83  E(vib)   ...       0.03 
freq.     978.52  E(vib)   ...       0.03 
freq.     985.73  E(vib)   ...       0.02 
freq.     987.36  E(vib)   ...       0.02 
freq.     990.51  E(vib)   ...       0.02 
freq.    1000.10  E(vib)   ...       0.02 
freq.    1000.57  E(vib)   ...       0.02 
freq.    1014.22  E(vib)   ...       0.02 
freq.    1017.28  E(vib)   ...       0.02 
freq.    1018.52  E(vib)   ...       0.02 
freq.    1022.18  E(vib)   ...       0.02 
freq.    1023.47  E(vib)   ...       0.02 
freq.    1029.91  E(vib)   ...       0.02 
freq.    1044.16  E(vib)   ...       0.02 
freq.    1058.04  E(vib)   ...       0.02 
freq.    1059.00  E(vib)   ...       0.02 
freq.    1059.86  E(vib)   ...       0.02 
freq.    1060.62  E(vib)   ...       0.02 
freq.    1110.70  E(vib)   ...       0.02 
freq.    1110.99  E(vib)   ...       0.01 
freq.    1136.51  E(vib)   ...       0.01 
freq.    1148.41  E(vib)   ...       0.01 
freq.    1172.85  E(vib)   ...       0.01 
freq.    1177.53  E(vib)   ...       0.01 
freq.    1180.87  E(vib)   ...       0.01 
freq.    1182.25  E(vib)   ...       0.01 
freq.    1196.56  E(vib)   ...       0.01 
freq.    1199.93  E(vib)   ...       0.01 
freq.    1243.91  E(vib)   ...       0.01 
freq.    1253.28  E(vib)   ...       0.01 
freq.    1260.29  E(vib)   ...       0.01 
freq.    1266.71  E(vib)   ...       0.01 
freq.    1278.18  E(vib)   ...       0.01 
freq.    1291.66  E(vib)   ...       0.01 
freq.    1329.67  E(vib)   ...       0.01 
freq.    1337.01  E(vib)   ...       0.01 
freq.    1345.92  E(vib)   ...       0.01 
freq.    1359.99  E(vib)   ...       0.01 
freq.    1370.57  E(vib)   ...       0.01 
freq.    1375.49  E(vib)   ...       0.01 
freq.    1377.63  E(vib)   ...       0.01 
freq.    1378.10  E(vib)   ...       0.01 
freq.    1405.87  E(vib)   ...       0.00 
freq.    1407.95  E(vib)   ...       0.00 
freq.    1409.68  E(vib)   ...       0.00 
freq.    1452.89  E(vib)   ...       0.00 
freq.    1458.50  E(vib)   ...       0.00 
freq.    1466.49  E(vib)   ...       0.00 
freq.    1475.26  E(vib)   ...       0.00 
freq.    1479.81  E(vib)   ...       0.00 
freq.    1485.31  E(vib)   ...       0.00 
freq.    1487.48  E(vib)   ...       0.00 
freq.    1488.12  E(vib)   ...       0.00 
freq.    1505.16  E(vib)   ...       0.00 
freq.    1516.83  E(vib)   ...       0.00 
freq.    1527.83  E(vib)   ...       0.00 
freq.    1538.20  E(vib)   ...       0.00 
freq.    1557.19  E(vib)   ...       0.00 
freq.    1565.94  E(vib)   ...       0.00 
freq.    1622.93  E(vib)   ...       0.00 
freq.    1624.50  E(vib)   ...       0.00 
freq.    1631.54  E(vib)   ...       0.00 
freq.    1647.46  E(vib)   ...       0.00 
freq.    1653.04  E(vib)   ...       0.00 
freq.    1654.31  E(vib)   ...       0.00 
freq.    1665.79  E(vib)   ...       0.00 
freq.    1675.91  E(vib)   ...       0.00 
freq.    1678.53  E(vib)   ...       0.00 
freq.    1690.87  E(vib)   ...       0.00 
freq.    1770.82  E(vib)   ...       0.00 
freq.    1783.96  E(vib)   ...       0.00 
freq.    3069.00  E(vib)   ...       0.00 
freq.    3070.22  E(vib)   ...       0.00 
freq.    3143.19  E(vib)   ...       0.00 
freq.    3144.65  E(vib)   ...       0.00 
freq.    3158.38  E(vib)   ...       0.00 
freq.    3161.69  E(vib)   ...       0.00 
freq.    3186.41  E(vib)   ...       0.00 
freq.    3187.49  E(vib)   ...       0.00 
freq.    3190.59  E(vib)   ...       0.00 
freq.    3195.24  E(vib)   ...       0.00 
freq.    3195.82  E(vib)   ...       0.00 
freq.    3197.98  E(vib)   ...       0.00 
freq.    3200.30  E(vib)   ...       0.00 
freq.    3206.51  E(vib)   ...       0.00 
freq.    3207.68  E(vib)   ...       0.00 
freq.    3210.16  E(vib)   ...       0.00 
freq.    3215.28  E(vib)   ...       0.00 
freq.    3217.88  E(vib)   ...       0.00 
freq.    3218.63  E(vib)   ...       0.00 
freq.    3218.84  E(vib)   ...       0.00 
freq.    3218.93  E(vib)   ...       0.00 
freq.    3236.91  E(vib)   ...       0.00 

------------
INNER ENERGY
------------

The inner energy is: U= E(el) + E(ZPE) + E(vib) + E(rot) + E(trans)
    E(el)   - is the total energy from the electronic structure calculation
              = E(kin-el) + E(nuc-el) + E(el-el) + E(nuc-nuc)
    E(ZPE)  - the the zero temperature vibrational energy from the frequency calculation
    E(vib)  - the the finite temperature correction to E(ZPE) due to population
              of excited vibrational states
    E(rot)  - is the rotational thermal energy
    E(trans)- is the translational thermal energy

Summary of contributions to the inner energy U:
Electronic energy                ...  -2979.61788110 Eh
Zero point energy                ...      0.46088405 Eh     289.21 kcal/mol
Thermal vibrational correction   ...      0.03037331 Eh      19.06 kcal/mol
Thermal rotational correction    ...      0.00141627 Eh       0.89 kcal/mol
Thermal translational correction ...      0.00141627 Eh       0.89 kcal/mol
-----------------------------------------------------------------------
Total thermal energy                  -2979.12379120 Eh


Summary of corrections to the electronic energy:
(perhaps to be used in another calculation)
Total thermal correction                  0.03320585 Eh      20.84 kcal/mol
Non-thermal (ZPE) correction              0.46088405 Eh     289.21 kcal/mol
-----------------------------------------------------------------------
Total correction                          0.49408990 Eh     310.05 kcal/mol


--------
ENTHALPY
--------

The enthalpy is H = U + kB*T
                kB is Boltzmann's constant
Total thermal energy              ...  -2979.12379120 Eh 
Thermal Enthalpy correction       ...      0.00094421 Eh       0.59 kcal/mol
-----------------------------------------------------------------------
Total Enthalpy                    ...  -2979.12284699 Eh


Note: Only C1 symmetry has been detected, increase convergence thresholds 
      if your molecule has a higher symmetry. Symmetry factor of 1.0 is   
      used for the rotational entropy correction. 
 

Note: Rotational entropy computed according to Herzberg 
Infrared and Raman Spectra, Chapter V,1, Van Nostrand Reinhold, 1945 
Point Group:  C1, Symmetry Number:   1  
Rotational constants in cm-1:     0.004198     0.002606     0.002045 

Vibrational entropy computed according to the QRRHO of S. Grimme
Chem.Eur.J. 2012 18 9955 using a reference frequency of 100.0 cm-1


-------
ENTROPY
-------

The entropy contributions are T*S = T*(S(el)+S(vib)+S(rot)+S(trans))
     S(el)   - electronic entropy
     S(vib)  - vibrational entropy
     S(rot)  - rotational entropy
     S(trans)- translational entropy
The entropies will be listed as multiplied by the temperature to get
units of energy

Electronic entropy                ...      0.00000000 Eh      0.00 kcal/mol
Vibrational entropy               ...      0.05468194 Eh     34.31 kcal/mol
Rotational entropy                ...      0.01782684 Eh     11.19 kcal/mol
Translational entropy             ...      0.02131711 Eh     13.38 kcal/mol
-----------------------------------------------------------------------
Final entropy term                ...      0.09382590 Eh     58.88 kcal/mol

In case the symmetry of your molecule has not been determined correctly
or in case you have a reason to use a different symmetry number we print 
out the resulting rotational entropy values for sn=1,12:

 non-linear molecules -----------------------------------
|  sn= 1 | S(rot)=       0.01782684 Eh     11.19 kcal/mol|
|  sn= 2 | S(rot)=       0.01717239 Eh     10.78 kcal/mol|
|  sn= 3 | S(rot)=       0.01678956 Eh     10.54 kcal/mol|
|  sn= 4 | S(rot)=       0.01651793 Eh     10.37 kcal/mol|
|  sn= 5 | S(rot)=       0.01630724 Eh     10.23 kcal/mol|
|  sn= 6 | S(rot)=       0.01613510 Eh     10.12 kcal/mol|
|  sn= 7 | S(rot)=       0.01598955 Eh     10.03 kcal/mol|
|  sn= 8 | S(rot)=       0.01586348 Eh      9.95 kcal/mol|
|  sn= 9 | S(rot)=       0.01575227 Eh      9.88 kcal/mol|
|  sn=10 | S(rot)=       0.01565279 Eh      9.82 kcal/mol|
|  sn=11 | S(rot)=       0.01556280 Eh      9.77 kcal/mol|
|  sn=12 | S(rot)=       0.01548064 Eh      9.71 kcal/mol|
 linear molecules ---------------------------------------
|  Dinfh | S(rot)=       0.01117247 Eh      7.01 kcal/mol|
|  Cinfv | S(rot)=       0.01182692 Eh      7.42 kcal/mol|
 --------------------------------------------------------


-------------------
GIBBS FREE ENERGY
-------------------

The Gibbs free energy is G = H - T*S

Total enthalpy                    ...  -2979.12284699 Eh 
Total entropy correction          ...     -0.09382590 Eh    -58.88 kcal/mol
-----------------------------------------------------------------------
Final Gibbs free energy         ...  -2979.21667289 Eh

For completeness - the Gibbs free energy minus the electronic energy
G-E(el)                           ...      0.40120821 Eh    251.76 kcal/mol


Maximum memory used throughout the entire PROP-calculation: 1261.3 MB

--------------------------------
SUGGESTED CITATIONS FOR THIS RUN
--------------------------------

Below you find a list of papers that are relevant to this ORCA run
We neither can nor want to force you to cite these papers, but we appreciate if you do
You receive ORCA, which is the product of decades of hard work by many enthusiastic individuals, for free
The only thing we kindly ask in return is that you cite our papers,
We deeply appreciate it, if you show your appreciation for ORCA by not just citing the generic ORCA reference.

Please note that relegating all ORCA citations to the supporting information does *not* help us.
SI sections are not indexed - citations you put there will not count into any citation statistics
But we need these citations in order to attract the funding resources that allow us to do what we are doing

Therefore, if you are a happy ORCA user, please consider citing a few of the papers listed below in the main body of your paper

In addition to the list printed below, the program has created the file OCAHEI-S5.bibtex that contains the list in bibtex format
You can import this file easily into all common literature databanks and citation aid programs


List of essential papers. We consider these as the minimum necessary citations

  1. Neese,F.
     Software update: the ORCA program system, version 5.0
     WIRES Comput. Molec. Sci., 2022 12(1)e1606
     doi.org/10.1002/wcms.1606

List of papers to cite with high priority. The work reported in these papers was absolutely
necessary for this run to complete.
Our perspective: the developers of density functionals and basis sets usually get cited in chemistry papers
Good! But without the algorithms to do something with them, the functionals or basis sets would not do anything.
Hence, in our opinion, the algorithm design and method developments papers are equally worthy of getting cited

  1. Neese,F.
     An improvement of the resolution of the identity approximation for the formation of the Coulomb matrix
     J. Comp. Chem., 2003 24(14)1740-1747
     doi.org/10.1002/jcc.10318
  2. Neese,F.; Wennmohs,F.; Hansen,A.; Becker,U.
     Efficient, approximate and parallel Hartree-Fock and hybrid DFT calculations. A 'chain-of-spheres' algorithm for the Hartree-Fock exchange
     Chem. Phys., 2009 356(1-3)98-109
     doi.org/10.1016/j.chemphys.2008.10.036
  3. Bykov,D.; Petrenko,T.; Izsak,R.; Kossmann,S.; Becker,U.; Valeev,E.; Neese,F.
     Efficient implementation of the analytic second derivatives of Hartree-Fock and hybrid DFT energies: a detailed analysis of different approximations
     Molec. Phys., 2015 113 1961-1977
     doi.org/10.1080/00268976.2015.1025114
  4. Helmich-Paris,B.; de Souza,B.; Neese,F.; Izsák,R.
     An improved chain of spheres for exchange algorithm
     J. Chem. Phys., 2021 155 104109
     doi.org/doi: 10.1063/5.0058766.
  5. Neese,F.
     The SHARK Integral Generation and Digestion System
     J. Comp. Chem., 2022  1-16
     doi.org/10.1002/jcc.26942

List of suggested additional citations. These are papers that are important in the 'surrounding' of 
of this run, or papers that preceded the highly important papers. If you like your results we are grateful for a citation.

  1. Izsak,R.; Neese,F.
     An overlap fitted chain of spheres exchange method
     J. Chem. Phys., 2011 135 144105
     doi.org/10.1063/1.3646921
  2. Izsak,R.; Hansen,A.; Neese,F.
     The resolution of identity and chain of spheres approximations for the LPNO-CCSD singles Fock term
     Molec. Phys., 2012 110 2413-2417
     doi.org/10.1080/00268976.2012.687466
  3. Neese,F.
     The ORCA program system
     WIRES Comput. Molec. Sci., 2012 2(1)73-78
     doi.org/10.1002/wcms.81
  4. Izsak,R.; Neese,F.; Klopper,W.
     Robust fitting techniques in the chain of spheres approximation to the Fock exchange: The role of the complementary space
     J. Chem. Phys., 2013 139 
     doi.org/10.1063/1.4819264
  5. Neese,F.
     Software update: the ORCA program system, version 4.0
     WIRES Comput. Molec. Sci., 2018 8(1)1-6
     doi.org/10.1002/wcms.1327
  6. Neese,F.; Wennmohs,F.; Becker,U.; Riplinger,C.
     The ORCA quantum chemistry program package
     J. Chem. Phys., 2020 152 Art. No. L224108
     doi.org/10.1063/5.0004608

List of optional additional citations

  1. Neese,F.
     Approximate second-order SCF convergence for spin unrestricted wavefunctions
     Chem. Phys. Lett., 2000 325(1-3)93-98
     doi.org/10.1016/s0009-2614(00)00662-x

Timings for individual modules:

Sum of individual times          ...    26454.843 sec (= 440.914 min)
Startup calculation              ...      557.973 sec (=   9.300 min)   2.1 %
SCF iterations                   ...    11850.261 sec (= 197.504 min)  44.8 %
Property integrals               ...     3801.517 sec (=  63.359 min)  14.4 %
SCF Response                     ...     6138.155 sec (= 102.303 min)  23.2 %
Property calculations            ...     1503.098 sec (=  25.052 min)   5.7 %
SCF Gradient evaluation          ...     2601.731 sec (=  43.362 min)   9.8 %
Geometry relaxation              ...        2.108 sec (=   0.035 min)   0.0 %
                             ****ORCA TERMINATED NORMALLY****
TOTAL RUN TIME: 0 days 7 hours 22 minutes 26 seconds 647 msec
