
                                 *****************
                                 * O   R   C   A *
                                 *****************

                                            #,                                       
                                            ###                                      
                                            ####                                     
                                            #####                                    
                                            ######                                   
                                           ########,                                 
                                     ,,################,,,,,                         
                               ,,#################################,,                 
                          ,,##########################################,,             
                       ,#########################################, ''#####,          
                    ,#############################################,,   '####,        
                  ,##################################################,,,,####,       
                ,###########''''           ''''###############################       
              ,#####''   ,,,,##########,,,,          '''####'''          '####       
            ,##' ,,,,###########################,,,                        '##       
           ' ,,###''''                  '''############,,,                           
         ,,##''                                '''############,,,,        ,,,,,,###''
      ,#''                                            '''#######################'''  
     '                                                          ''''####''''         
             ,#######,   #######,   ,#######,      ##                                
            ,#'     '#,  ##    ##  ,#'     '#,    #''#        ,####,   ,####,        
            ##       ##  ##   ,#'  ##            #'  '#       #'       #'  '#        
            ##       ##  #######   ##           ,######,      #####,   #    #        
            '#,     ,#'  ##    ##  '#,     ,#' ,#      #,     #,   #   #,  ,#        
             '#######'   ##     ##  '#######'  #'      '#     '####' # '####'        



                #########################################################
                #                        -***-                          #
                #          Department of theory and spectroscopy        #
                #                                                       #
                #                      Frank Neese                      #
                #                                                       #
                #     Directorship, Architecture, Infrastructure        #
                #                    SHARK, DRIVERS                     #
                #        Core code/Algorithms in most modules           #
                #                                                       #
                #        Max Planck Institute fuer Kohlenforschung      #
                #                Kaiser Wilhelm Platz 1                 #
                #                 D-45470 Muelheim/Ruhr                 #
                #                      Germany                          #
                #                                                       #
                #                  All rights reserved                  #
                #                        -***-                          #
                #########################################################


                         Program Version 6.0.1  -  RELEASE   -


 With contributions from (in alphabetic order):
[Max-Planck-Institut fuer Kohlenforschung]                               
  Daniel Aravena         : Magnetic Suceptibility                        
  Michael Atanasov       : Ab Initio Ligand Field Theory (pilot matlab implementation)
  Alexander A. Auer      : GIAO ZORA, VPT2 properties, NMR spectrum      
  Ute Becker             : All parallelization in ORCA, NUMFREQ, NUMCALC 
  Giovanni Bistoni       : ED, misc. LED, open-shell LED, HFLD           
  Martin Brehm           : Molecular dynamics                            
  Dmytro Bykov           : pre 5.0 version of the SCF Hessian            
  Marcos Casanova-Páez   : Triplet and SCS-CIS(D). UHF-(DLPNO)-IP/EA/STEOM-CCSD. UHF-CVS-IP/STEOM-CCSD   
  Vijay G. Chilkuri      : MRCI spin determinant printing, contributions to CSF-ICE 
  Pauline Colinet        : FMM embedding                                 
  Dipayan Datta          : RHF DLPNO-CCSD density                        
  Achintya Kumar Dutta   : EOM-CC, STEOM-CC                              
  Nicolas Foglia         : Exact transition moments, OPA infrastructure, MCD improvements    
  Dmitry Ganyushin       : Spin-Orbit,Spin-Spin,Magnetic field MRCI      
  Miquel Garcia-Rates    : C-PCM and meta-GGA Hessian, CCSD/C-PCM, Gaussian charge scheme 
  Tiago L. C. Gouveia    : GS-ROHF, GS-ROCIS                             
  Yang Guo               : DLPNO-NEVPT2, F12-NEVPT2, CIM, IAO-localization        
  Andreas Hansen         : Spin unrestricted coupled pair/coupled cluster methods 
  Ingolf Harden          : AUTO-CI MPn and infrastructure                
  Benjamin Helmich-Paris : MC-RPA, TRAH-(SCF,CASSCF), AVAS, COSX integrals, SCF dyn. polar. 
  Lee Huntington         : MR-EOM, pCC                                   
  Robert Izsak           : Overlap fitted RIJCOSX, COSX-SCS-MP3, EOM     
  Riya Kayal             : Wick's Theorem for AUTO-CI, AUTO-CI UHF-CCSDT 
  Emily Kempfer          : AUTO-CI, RHF CISDT and CCSDT                  
  Christian Kollmar      : KDIIS, OOCD, Brueckner-CCSD(T), CCSD density, CASPT2, CASPT2-K, improved NEVPT2 
  Axel Koslowski         : Symmetry handling                             
  Simone Kossmann        : meta-GGA functionals, TD-DFT gradient, OOMP2, (MP2 Hessian; deprecated post 5.0) 
  Lucas Lang             : DCDCAS                                        
  Marvin Lechner         : AUTO-CI (C++ implementation), FIC-MRCC        
  Spencer Leger          : CASSCF response                               
  Dagmar Lenk            : GEPOL surface, SMD, ORCA-2-JSON               
  Dimitrios Liakos       : Extrapolation schemes; Compound Job, initial MDCI parallelization 
  Dimitrios Manganas     : Further ROCIS development; embedding schemes. LFT, Crystal Embedding 
  Dimitrios Pantazis     : SARC Basis sets                               
  Anastasios Papadopoulos: AUTO-CI, single reference methods and gradients 
  Taras Petrenko         : pre 6.0 DFT Hessian and TD-DFT gradient, (ASA, deprecated), ECA, 1-Electron XAS/XES, NRVS 
  Peter Pinski           : DLPNO-MP2, DLPNO-MP2 Gradient                 
  Christoph Reimann      : Effective Core Potentials                     
  Marius Retegan         : Local ZFS, SOC                                
  Christoph Riplinger    : Optimizer, TS searches, QM/MM, DLPNO-CCSD(T), (RO)-DLPNO pert. Triples 
  Michael Roemelt        : Original ROCIS implementation                 
  Masaaki Saitow         : Open-shell DLPNO-CCSD energy and density      
  Barbara Sandhoefer     : DKH picture change effects                    
  Kantharuban Sivalingam : CASSCF convergence/infrastructure, NEVPT2 and variants, FIC-MRCI 
  Bernardo de Souza      : ESD, SOC TD-DFT                               
  Georgi L. Stoychev     : AutoAux, RI-MP2 NMR, DLPNO-MP2 response, X2C  
  Van Anh Tran           : RI-MP2 g-tensors                              
  Willem Van den Heuvel  : Paramagnetic NMR                              
  Zikuan Wang            : NOTCH, Electric field optimization            
  Frank Wennmohs         : Technical directorship and infrastructure     
  Hang Xu                : AUTO-CI-Response properties                   
                                                                         
[FACCTs GmbH]                                                            
  Markus Bursch, Miquel Garcia-Rates, Christoph Riplinger, Bernardo de Souza, Georgi L. Stoychev 
                                                                 
  APM, Basis sets (HGBS, AHGBS, def-TZVP (Ac-Lr), def2-XVPD (La-Lu)), CI-OPT, improved COSX, DLPNO-Multilevel,           
  DOCKER, DRACO, updates on ESD, GOAT, IRC, LR-CPCM, MBIS, meta-GGA TD-DFT gradient, ML-optimized integration grids, 
  MM, NACMEs, nearIR, NEB, NEB-TS, NL-DFT gradient (VV10), 2- and 3-layer-ONIOM, interface openCOSMO-RS, QMMM,   
  Crystal-QMMM, SF, symmetry and pop. for TD-DFT, r2SCAN hybrids, SOLVATOR                                   
                                                                         
[Other institutions]                                                     
  V. Asgeirsson          : NEB                                           
  Christoph Bannwarth    : sTDA-DFT, sTD-DFT, PBEh-3c, B97-3c, D3        
  Sebastian Ehlert       : rSCAN, r2SCAN, r2SCAN-3c, D4, dhf basis sets  
  Marvin Friede          : D4 for Fr, Ra, Ac-Lr                          
  Lars Goerigk           : TD-DFT with DH, B97 family of functionals     
  Stefan Grimme          : VdW corrections, initial TS optimization, DFT functionals, gCP, sTDA/sTD-DF 
  Waldemar Hujo          : DFT-NL                                        
  H. Jonsson             : NEB                                           
  Holger Kruse           : gCP                                           
  Marcel Mueller         : wB97X-3c, vDZP basis set                      
  Hagen Neugebauer       : wr2SCAN                                       
  Tobias Risthaus        : range-separated hybrid DFT                    
  Lukas Wittmann         : regularized MP2, r2SCAN double-hybrids, wr2SCAN        
                                                                         
We gratefully acknowledge several colleagues who have allowed us to      
interface, adapt or use parts of their codes:                            
  Ed Valeev, F. Pavosevic, A. Kumar             : LibInt (2-el integral package), F12 methods 
  Garnet Chan, S. Sharma, J. Yang, R. Olivares  : DMRG                   
  Ulf Ekstrom                                   : XCFun DFT Library      
  Mihaly Kallay                                 : mrcc  (arbitrary order and MRCC methods)
  Frank Weinhold                                : gennbo (NPA and NBO analysis)           
  Simon Mueller                                 : openCOSMO-RS                            
  Christopher J. Cramer and Donald G. Truhlar   : smd solvation model                     
  S Lehtola, MJT Oliveira, MAL Marques          : LibXC Library                           
  Liviu Ungur et al                             : ANISO software                          


 Your calculation uses the libint2 library for the computation of 2-el integrals
 For citations please refer to: http://libint.valeyev.net

 Your ORCA version has been built with support for libXC version: 6.2.2
 For citations please refer to: https://libxc.gitlab.io

 This ORCA versions uses:
   CBLAS   interface :  Fast vector & matrix operations
   LAPACKE interface :  Fast linear algebra routines
   SCALAPACK package :  Parallel linear algebra routines
   Shared memory     :  Shared parallel matrices
   BLAS/LAPACK       :  OpenBLAS 0.3.27  USE64BITINT DYNAMIC_ARCH NO_AFFINITY Cooperlake SINGLE_THREADED
        Core in use  :  Cooperlake
   Copyright (c) 2011-2014, The OpenBLAS Project


NOTE: MaxCore=3600 MB was set to SCF,MP2,MDCI,CIPSI,MRCI and CIS
      => If you want to overwrite this, your respective input block should be placed after the MaxCore statement
Warning: RI is on but no J-basis has been assigned. Assigning Def2/J (nothing to worry about!)
================================================================================

----- Orbital basis set information -----
Your calculation utilizes the basis: def2-TZVP
   F. Weigend and R. Ahlrichs, Phys. Chem. Chem. Phys. 7, 3297 (2005).

----- AuxJ basis set information -----
Your calculation utilizes the auxiliary basis: def2/J
   F. Weigend, Phys. Chem. Chem. Phys. 8, 1057 (2006).

================================================================================
                                        WARNINGS
                       Please study these warnings very carefully!
================================================================================


WARNING: Geometry Optimization
  ===> : Switching off AutoStart
         For restart on a previous wavefunction, please use MOREAD

================================================================================
                                       INPUT FILE
================================================================================
NAME = POGXUG-S5.inp
|  1> ! PBE0 def2-TZVP  Opt Freq DEFGRID3
|  2> 
|  3> %maxcore 3600
|  4> 
|  5> %pal
|  6>     nprocs 16
|  7> end
|  8> 
|  9> *xyz 0 1
| 10> Fe -0.7561 6.0893 5.1526
| 11> N -1.8354 7.5419 6.3871
| 12> N 0.4339 6.2647 6.9424
| 13> N 2.3349 4.9426 6.5922
| 14> H 2.1444 4.8296 5.74
| 15> H 3.0552 4.5723 6.9354
| 16> S 1.8759 5.9356 9.0562
| 17> C -2.9819 8.1369 6.0058
| 18> H -3.2745 8.043 5.1072
| 19> C -3.7418 8.879 6.8838
| 20> H -4.546 9.2943 6.5953
| 21> C -3.3169 9.0097 8.2008
| 22> H -3.8328 9.5012 8.8294
| 23> C -2.1408 8.4174 8.578
| 24> H -1.8176 8.5114 9.4663
| 25> C -1.4315 7.6821 7.6547
| 26> C -0.1752 6.9659 7.9803
| 27> C 0.4486 6.9088 9.1736
| 28> H 0.1493 7.3417 9.9651
| 29> C 1.532 5.6724 7.362
| 30> N 0.4918 4.6131 4.1993
| 31> C 0.907 4.3067 3.174
| 32> Se 1.55 3.843 1.5814
| 33> N 0.3233 7.5419 3.918
| 34> N -1.9461 6.2647 3.3628
| 35> N -3.8471 4.9426 3.7129
| 36> H -3.6566 4.8296 4.5652
| 37> H -4.5674 4.5723 3.3698
| 38> S -3.388 5.9356 1.249
| 39> C 1.4697 8.1369 4.2993
| 40> H 1.7624 8.043 5.1979
| 41> C 2.2297 8.879 3.4213
| 42> H 3.0339 9.2943 3.7099
| 43> C 1.8047 9.0097 2.1043
| 44> H 2.3207 9.5012 1.4757
| 45> C 0.6286 8.4174 1.7271
| 46> H 0.3054 8.5114 0.8388
| 47> C -0.0807 7.6821 2.6505
| 48> C -1.337 6.9659 2.3248
| 49> C -1.9608 6.9088 1.1315
| 50> H -1.6615 7.3417 0.3401
| 51> C -3.0441 5.6724 2.9431
| 52> N -2.004 4.6131 6.1058
| 53> C -2.4191 4.3067 7.1312
| 54> Se -3.0622 3.843 8.7237
| 55> *
| 56> 
| 57>                          ****END OF INPUT****
================================================================================

                       *****************************
                       * Geometry Optimization Run *
                       *****************************

Geometry optimization settings:
Update method            Update   .... BFGS
Choice of coordinates    CoordSys .... (2022) Redundant Internals
Initial Hessian          InHess   .... Almloef's Model
Max. no of cycles        MaxIter  .... 135

Convergence Tolerances:
Energy Change            TolE     ....  5.0000e-06 Eh
Max. Gradient            TolMAXG  ....  3.0000e-04 Eh/bohr
RMS Gradient             TolRMSG  ....  1.0000e-04 Eh/bohr
Max. Displacement        TolMAXD  ....  4.0000e-03 bohr
RMS Displacement         TolRMSD  ....  2.0000e-03 bohr
Strict Convergence                .... False

------------------------------------------------------------------------------
                        ORCA OPTIMIZATION COORDINATE SETUP
------------------------------------------------------------------------------

The optimization will be done in redundant internal coordinates (2022)
Making redundant internal coordinates   ...  (2022 redundants) done
Evaluating the initial hessian          ...  (Almloef) done
Evaluating the coordinates              ...  done
Calculating the B-matrix                .... done
Calculating the G-matrix                .... done
Diagonalizing the G-matrix              .... done
Small eigenvalue found = 1.517e-02
Small eigenvalue found = 1.651e-02
Small eigenvalue found = 1.878e-02
Small eigenvalue found = 2.142e-02
Small eigenvalue found = 2.562e-02
The first mode is                       ....  146
The number of degrees of freedom        ....  129

    -----------------------------------------------------------------
                    Redundant Internal Coordinates


    -----------------------------------------------------------------
         Definition                    Initial Value    Approx d2E/dq
    -----------------------------------------------------------------
      1. B(N   1,Fe  0)                  2.1906         0.298966   
      2. B(N   2,Fe  0)                  2.1564         0.338991   
      3. B(H   4,N   3)                  0.8805         0.696277   
      4. B(H   5,N   3)                  0.8796         0.698553   
      5. B(C   7,N   1)                  1.3468         0.655835   
      6. B(H   8,C   7)                  0.9497         0.602943   
      7. B(C   9,C   7)                  1.3781         0.652816   
      8. B(H  10,C   9)                  0.9500         0.602325   
      9. B(C  11,C   9)                  1.3900         0.624787   
     10. B(H  12,C  11)                  0.9502         0.601838   
     11. B(C  13,C  11)                  1.3698         0.672962   
     12. B(H  14,C  13)                  0.9499         0.602410   
     13. B(C  15,C  13)                  1.3770         0.655248   
     14. B(C  15,N   1)                  1.3378         0.677987   
     15. B(C  16,N   2)                  1.3928         0.553849   
     16. B(C  16,C  15)                  1.4823         0.445104   
     17. B(C  17,C  16)                  1.3477         0.729780   
     18. B(C  17,S   6)                  1.7315         0.480471   
     19. B(H  18,C  17)                  0.9505         0.601149   
     20. B(C  19,S   6)                  1.7487         0.451094   
     21. B(C  19,N   3)                  1.3304         0.696679   
     22. B(C  19,N   2)                  1.3163         0.733537   
     23. B(N  20,H   4)                  2.2697         0.004230   
     24. B(N  20,Fe  0)                  2.1553         0.340452   
     25. B(C  21,N  20)                  1.1478         1.362208   
     26. B(Se 22,C  21)                  1.7790         0.726359   
     27. B(N  23,Fe  0)                  2.1908         0.298850   
     28. B(N  24,Fe  0)                  2.1564         0.338991   
     29. B(H  26,N  25)                  0.8806         0.696030   
     30. B(H  27,N  25)                  0.8796         0.698654   
     31. B(C  29,N  23)                  1.3467         0.656040   
     32. B(H  30,C  29)                  0.9497         0.602875   
     33. B(C  31,C  29)                  1.3781         0.652684   
     34. B(H  32,C  31)                  0.9500         0.602258   
     35. B(C  33,C  31)                  1.3900         0.624717   
     36. B(H  34,C  33)                  0.9502         0.601718   
     37. B(C  35,C  33)                  1.3698         0.672962   
     38. B(H  36,C  35)                  0.9499         0.602410   
     39. B(C  37,C  35)                  1.3771         0.655087   
     40. B(C  37,N  23)                  1.3377         0.678148   
     41. B(C  38,C  37)                  1.4823         0.445068   
     42. B(C  38,N  24)                  1.3929         0.553698   
     43. B(C  39,C  38)                  1.3477         0.729780   
     44. B(C  39,S  28)                  1.7314         0.480605   
     45. B(H  40,C  39)                  0.9504         0.601333   
     46. B(C  41,S  28)                  1.7486         0.451255   
     47. B(C  41,N  25)                  1.3304         0.696525   
     48. B(C  41,N  24)                  1.3163         0.733676   
     49. B(N  42,H  26)                  2.2697         0.004231   
     50. B(N  42,Fe  0)                  2.1552         0.340507   
     51. B(C  43,N  42)                  1.1479         1.361942   
     52. B(Se 44,C  43)                  1.7789         0.726501   
     53. A(N   2,Fe  0,N  42)           90.4671         0.435480   
     54. A(N  24,Fe  0,N  42)           95.9275         0.435480   
     55. A(N  20,Fe  0,N  24)           90.4649         0.435467   
     56. A(N  23,Fe  0,N  24)           75.5359         0.425396   
     57. A(N   1,Fe  0,N  24)           98.1580         0.425426   
     58. A(N   1,Fe  0,N  42)           85.3926         0.425766   
     59. A(N  20,Fe  0,N  23)           85.3887         0.425724   
     60. A(N   1,Fe  0,N  23)           96.9302         0.415965   
     61. A(N  20,Fe  0,N  42)           93.5395         0.435817   
     62. A(N   1,Fe  0,N   2)           75.5359         0.425426   
     63. A(N  23,Fe  0,N  42)          171.3717         0.425736   
     64. A(N   2,Fe  0,N  23)           98.1584         0.425396   
     65. A(N   2,Fe  0,N  20)           95.9296         0.435467   
     66. A(N   2,Fe  0,N  24)          170.6691         0.435130   
     67. A(N   1,Fe  0,N  20)          171.3743         0.425753   
     68. A(Fe  0,N   1,C  15)          117.0468         0.428954   
     69. A(C   7,N   1,C  15)          118.6192         0.439782   
     70. A(Fe  0,N   1,C   7)          123.5602         0.426408   
     71. A(Fe  0,N   2,C  19)          133.4973         0.445051   
     72. A(C  16,N   2,C  19)          110.7205         0.432688   
     73. A(Fe  0,N   2,C  16)          114.7152         0.423112   
     74. A(H   4,N   3,C  19)          119.9910         0.397355   
     75. A(H   5,N   3,C  19)          119.9588         0.397583   
     76. A(H   4,N   3,H   5)          120.0502         0.354934   
     77. A(C  17,S   6,C  19)           89.3225         0.436145   
     78. A(N   1,C   7,H   8)          119.1095         0.386890   
     79. A(H   8,C   7,C   9)          119.0913         0.389048   
     80. A(N   1,C   7,C   9)          121.7992         0.439677   
     81. A(C   7,C   9,H  10)          120.5801         0.388978   
     82. A(H  10,C   9,C  11)          120.3588         0.386013   
     83. A(C   7,C   9,C  11)          119.0609         0.438726   
     84. A(H  12,C  11,C  13)          120.5085         0.390993   
     85. A(C   9,C  11,C  13)          118.8626         0.441140   
     86. A(C   9,C  11,H  12)          120.6289         0.385959   
     87. A(H  14,C  13,C  15)          120.3034         0.389240   
     88. A(C  11,C  13,H  14)          120.4538         0.391058   
     89. A(C  11,C  13,C  15)          119.2428         0.444955   
     90. A(C  13,C  15,C  16)          123.1798         0.413161   
     91. A(N   1,C  15,C  16)          114.4178         0.412986   
     92. A(N   1,C  15,C  13)          122.3964         0.442621   
     93. A(C  15,C  16,C  17)          127.3904         0.421162   
     94. A(N   2,C  16,C  17)          115.8526         0.435137   
     95. A(N   2,C  16,C  15)          116.7565         0.398490   
     96. A(C  16,C  17,H  18)          124.9081         0.396505   
     97. A(S   6,C  17,H  18)          124.8905         0.388387   
     98. A(S   6,C  17,C  16)          110.2012         0.450686   
     99. A(N   3,C  19,S   6)          121.6342         0.438929   
    100. A(N   2,C  19,S   6)          113.9018         0.443036   
    101. A(N   2,C  19,N   3)          124.4618         0.451007   
    102. A(Fe  0,N  20,C  21)          141.9401         0.498995   
    103. L(N  20,C  21,Se 22,Fe  0, 2) 179.5835         0.559075   
    104. L(N  20,C  21,Se 22,Fe  0, 1) 179.6664         0.559075   
    105. A(C  29,N  23,C  37)          118.6240         0.439826   
    106. A(Fe  0,N  23,C  37)          117.0436         0.428943   
    107. A(Fe  0,N  23,C  29)          123.5600         0.426402   
    108. A(C  38,N  24,C  41)          110.7133         0.432681   
    109. A(Fe  0,N  24,C  41)          133.5011         0.445066   
    110. A(Fe  0,N  24,C  38)          114.7176         0.423091   
    111. A(H  26,N  25,H  27)          120.0437         0.354921   
    112. A(H  27,N  25,C  41)          119.9672         0.397577   
    113. A(H  26,N  25,C  41)          119.9891         0.397315   
    114. A(C  39,S  28,C  41)           89.3260         0.436195   
    115. A(H  30,C  29,C  31)          119.0837         0.389026   
    116. A(N  23,C  29,C  31)          121.8014         0.439685   
    117. A(N  23,C  29,H  30)          119.1149         0.386903   
    118. A(H  32,C  31,C  33)          120.3676         0.385998   
    119. A(C  29,C  31,C  33)          119.0549         0.438701   
    120. A(C  29,C  31,H  32)          120.5773         0.388957   
    121. A(H  34,C  33,C  35)          120.5126         0.390980   
    122. A(C  31,C  33,C  35)          118.8659         0.441131   
    123. A(C  31,C  33,H  34)          120.6215         0.385938   
    124. A(H  36,C  35,C  37)          120.3063         0.389223   
    125. A(C  33,C  35,C  37)          119.2399         0.444935   
    126. A(C  33,C  35,H  36)          120.4538         0.391058   
    127. A(C  35,C  37,C  38)          123.1732         0.413137   
    128. A(N  23,C  37,C  38)          114.4257         0.412997   
    129. A(N  23,C  37,C  35)          122.3950         0.442620   
    130. A(C  37,C  38,C  39)          127.3940         0.421156   
    131. A(N  24,C  38,C  39)          115.8551         0.435116   
    132. A(N  24,C  38,C  37)          116.7502         0.398465   
    133. A(C  38,C  39,H  40)          124.9051         0.396526   
    134. A(S  28,C  39,H  40)          124.8974         0.388427   
    135. A(S  28,C  39,C  38)          110.1974         0.450709   
    136. A(N  25,C  41,S  28)          121.6313         0.438939   
    137. A(N  24,C  41,S  28)          113.9068         0.443079   
    138. A(N  24,C  41,N  25)          124.4597         0.451004   
    139. A(Fe  0,N  42,C  43)          141.9332         0.498992   
    140. L(N  42,C  43,Se 44,Fe  0, 2) 179.5651         0.559076   
    141. L(N  42,C  43,Se 44,Fe  0, 1) 179.6737         0.559076   
    142. D(C  15,N   1,Fe  0,N  20)     -2.0159         0.001975   
    143. D(C   7,N   1,Fe  0,N  24)      6.7693         0.001975   
    144. D(C  15,N   1,Fe  0,N   2)    -10.4842         0.001975   
    145. D(C   7,N   1,Fe  0,N   2)    179.7514         0.001975   
    146. D(C   7,N   1,Fe  0,N  20)   -171.7803         0.001975   
    147. D(C   7,N   1,Fe  0,N  42)    -88.5734         0.001975   
    148. D(C   7,N   1,Fe  0,N  23)     83.0739         0.001975   
    149. D(C  19,N   2,Fe  0,N   1)    177.3506         0.002108   
    150. D(C  19,N   2,Fe  0,N  20)     -1.3771         0.002108   
    151. D(C  16,N   2,Fe  0,N   1)     10.5298         0.002108   
    152. D(C  16,N   2,Fe  0,N  42)    -74.5905         0.002108   
    153. D(C  16,N   2,Fe  0,N  23)    105.6303         0.002108   
    154. D(C  16,N   2,Fe  0,N  20)   -168.1978         0.002108   
    155. D(C  16,N   2,Fe  0,N  24)     58.7690         0.002108   
    156. D(H   8,C   7,N   1,Fe  0)    -10.4767         0.035157   
    157. D(C   9,C   7,N   1,Fe  0)    169.5614         0.035157   
    158. D(C   9,C   7,N   1,C  15)     -0.0519         0.035157   
    159. D(H   8,C   7,N   1,C  15)    179.9100         0.035157   
    160. D(C  11,C   9,C   7,N   1)     -0.4012         0.029691   
    161. D(H  10,C   9,C   7,N   1)    179.7458         0.029691   
    162. D(C  11,C   9,C   7,H   8)    179.6369         0.029691   
    163. D(H  10,C   9,C   7,H   8)     -0.2161         0.029691   
    164. D(H  12,C  11,C   9,C   7)   -178.7274         0.027037   
    165. D(C  13,C  11,C   9,H  10)   -178.8811         0.027037   
    166. D(C  13,C  11,C   9,C   7)      1.2655         0.027037   
    167. D(H  12,C  11,C   9,H  10)      1.1259         0.027037   
    168. D(C  15,C  13,C  11,C   9)     -1.6737         0.031694   
    169. D(C  15,C  13,C  11,H  12)    178.3192         0.031694   
    170. D(H  14,C  13,C  11,C   9)    178.3852         0.031694   
    171. D(H  14,C  13,C  11,H  12)     -1.6219         0.031694   
    172. D(C  13,C  15,N   1,Fe  0)   -170.6683         0.037802   
    173. D(C  16,C  15,C  13,H  14)      2.1485         0.029929   
    174. D(N   1,C  15,C  13,H  14)   -178.7950         0.029929   
    175. D(N   1,C  15,C  13,C  11)      1.2638         0.029929   
    176. D(C  16,C  15,N   1,C   7)    178.7531         0.037802   
    177. D(C  16,C  15,C  13,C  11)   -177.7927         0.029929   
    178. D(C  16,C  15,N   1,Fe  0)      8.4645         0.037802   
    179. D(C  13,C  15,N   1,C   7)     -0.3797         0.037802   
    180. D(C  17,C  16,C  15,C  13)      0.4290         0.013511   
    181. D(C  17,C  16,C  15,N   1)   -178.6961         0.013511   
    182. D(N   2,C  16,C  15,C  13)   -179.8698         0.013511   
    183. D(N   2,C  16,C  15,N   1)      1.0050         0.013511   
    184. D(C  17,C  16,N   2,C  19)     -0.0268         0.024467   
    185. D(C  17,C  16,N   2,Fe  0)    169.7880         0.024467   
    186. D(C  15,C  16,N   2,C  19)   -179.7630         0.024467   
    187. D(C  15,C  16,N   2,Fe  0)     -9.9481         0.024467   
    188. D(H  18,C  17,C  16,C  15)     -0.6477         0.037786   
    189. D(H  18,C  17,C  16,N   2)    179.6488         0.037786   
    190. D(S   6,C  17,C  16,C  15)    179.4674         0.037786   
    191. D(S   6,C  17,C  16,N   2)     -0.2361         0.037786   
    192. D(H  18,C  17,S   6,C  19)   -179.5677         0.004908   
    193. D(C  16,C  17,S   6,C  19)      0.3173         0.004908   
    194. D(N   3,C  19,S   6,C  17)    179.1376         0.004487   
    195. D(N   2,C  19,S   6,C  17)     -0.3519         0.004487   
    196. D(S   6,C  19,N   3,H   5)      0.5976         0.040127   
    197. D(S   6,C  19,N   3,H   4)   -179.4915         0.040127   
    198. D(N   2,C  19,N   3,H   5)   -179.9685         0.040127   
    199. D(N   2,C  19,N   3,H   4)     -0.0576         0.040127   
    200. D(S   6,C  19,N   2,C  16)      0.2813         0.044964   
    201. D(S   6,C  19,N   2,Fe  0)   -166.9253         0.044964   
    202. D(N   3,C  19,N   2,C  16)   -179.1915         0.044964   
    203. D(N   3,C  19,N   2,Fe  0)     13.6019         0.044964   
    204. D(C  21,N  20,Fe  0,N   1)   -150.0818         0.002113   
    205. D(C  21,N  20,Fe  0,N  42)    127.3220         0.002113   
    206. D(C  21,N  20,Fe  0,N  24)     31.3540         0.002113   
    207. D(C  21,N  20,Fe  0,N  23)    -44.0947         0.002113   
    208. D(C  21,N  20,Fe  0,N   2)   -141.8394         0.002113   
    209. D(C  37,N  23,Fe  0,N   2)    176.5390         0.001974   
    210. D(C  37,N  23,Fe  0,N   1)   -107.1563         0.001974   
    211. D(C  29,N  23,Fe  0,N  42)   -171.7631         0.001974   
    212. D(C  29,N  23,Fe  0,N  24)    179.7465         0.001974   
    213. D(C  29,N  23,Fe  0,N  20)    -88.5796         0.001974   
    214. D(C  29,N  23,Fe  0,N   2)      6.7646         0.001974   
    215. D(C  29,N  23,Fe  0,N   1)     83.0693         0.001974   
    216. D(C  41,N  24,Fe  0,N   2)   -134.4162         0.002108   
    217. D(C  41,N  24,Fe  0,N   1)    -87.5573         0.002108   
    218. D(C  38,N  24,Fe  0,N  42)   -168.1951         0.002108   
    219. D(C  38,N  24,Fe  0,N  23)     10.5289         0.002108   
    220. D(C  38,N  24,Fe  0,N  20)    -74.5881         0.002108   
    221. D(C  38,N  24,Fe  0,N   2)     58.7705         0.002108   
    222. D(C  38,N  24,Fe  0,N   1)    105.6294         0.002108   
    223. D(C  31,C  29,N  23,C  37)     -0.0607         0.035181   
    224. D(C  31,C  29,N  23,Fe  0)    169.5620         0.035181   
    225. D(H  30,C  29,N  23,C  37)    179.9098         0.035181   
    226. D(H  30,C  29,N  23,Fe  0)    -10.4675         0.035181   
    227. D(C  33,C  31,C  29,H  30)    179.6358         0.029678   
    228. D(C  33,C  31,C  29,N  23)     -0.3937         0.029678   
    229. D(H  32,C  31,C  29,H  30)     -0.2238         0.029678   
    230. D(H  32,C  31,C  29,N  23)    179.7467         0.029678   
    231. D(C  35,C  33,C  31,H  32)   -178.8793         0.027031   
    232. D(C  35,C  33,C  31,C  29)      1.2607         0.027031   
    233. D(H  34,C  33,C  31,H  32)      1.1336         0.027031   
    234. D(H  34,C  33,C  31,C  29)   -178.7263         0.027031   
    235. D(C  37,C  35,C  33,H  34)    178.3170         0.031694   
    236. D(C  37,C  35,C  33,C  31)     -1.6701         0.031694   
    237. D(H  36,C  35,C  33,H  34)     -1.6254         0.031694   
    238. D(H  36,C  35,C  33,C  31)    178.3875         0.031694   
    239. D(C  38,C  37,C  35,H  36)      2.1509         0.029913   
    240. D(C  38,C  37,C  35,C  33)   -177.7916         0.029913   
    241. D(N  23,C  37,C  35,H  36)   -178.7989         0.029913   
    242. D(N  23,C  37,C  35,C  33)      1.2586         0.029913   
    243. D(C  38,C  37,N  23,C  29)    178.7547         0.037822   
    244. D(C  38,C  37,N  23,Fe  0)      8.4571         0.037822   
    245. D(C  35,C  37,N  23,C  29)     -0.3721         0.037822   
    246. D(C  35,C  37,N  23,Fe  0)   -170.6697         0.037822   
    247. D(C  39,C  38,C  37,C  35)      0.4265         0.013509   
    248. D(C  39,C  38,C  37,N  23)   -178.6927         0.013509   
    249. D(N  24,C  38,C  37,C  35)   -179.8701         0.013509   
    250. D(N  24,C  38,C  37,N  23)      1.0108         0.013509   
    251. D(C  39,C  38,N  24,C  41)     -0.0224         0.024453   
    252. D(C  39,C  38,N  24,Fe  0)    169.7879         0.024453   
    253. D(C  37,C  38,N  24,C  41)   -179.7606         0.024453   
    254. D(C  37,C  38,N  24,Fe  0)     -9.9503         0.024453   
    255. D(H  40,C  39,C  38,C  37)     -0.6483         0.037786   
    256. D(H  40,C  39,C  38,N  24)    179.6459         0.037786   
    257. D(S  28,C  39,C  38,C  37)    179.4675         0.037786   
    258. D(S  28,C  39,C  38,N  24)     -0.2382         0.037786   
    259. D(H  40,C  39,S  28,C  41)   -179.5674         0.004910   
    260. D(C  38,C  39,S  28,C  41)      0.3168         0.004910   
    261. D(S  28,C  41,N  25,H  26)   -179.4888         0.040107   
    262. D(N  24,C  41,N  25,H  27)   -179.9744         0.040107   
    263. D(N  24,C  41,N  25,H  26)     -0.0628         0.040107   
    264. D(S  28,C  41,N  24,C  38)      0.2767         0.044983   
    265. D(S  28,C  41,N  24,Fe  0)   -166.9236         0.044983   
    266. D(N  25,C  41,N  24,C  38)   -179.1888         0.044983   
    267. D(S  28,C  41,N  25,H  27)      0.5995         0.040107   
    268. D(N  25,C  41,N  24,Fe  0)     13.6110         0.044983   
    269. D(N  25,C  41,S  28,C  39)    179.1334         0.004489   
    270. D(N  24,C  41,S  28,C  39)     -0.3489         0.004489   
    271. D(C  43,N  42,Fe  0,N  24)   -141.8477         0.002113   
    272. D(C  43,N  42,Fe  0,N  23)   -150.1116         0.002113   
    273. D(C  43,N  42,Fe  0,N  20)    127.3160         0.002113   
    274. D(C  43,N  42,Fe  0,N   2)     31.3458         0.002113   
    275. D(C  43,N  42,Fe  0,N   1)    -44.1028         0.002113   
    -----------------------------------------------------------------

Number of atoms                         .... 45
Number of degrees of freedom            .... 275


         *************************************************************
         *                GEOMETRY OPTIMIZATION CYCLE   1            *
         *************************************************************
---------------------------------
CARTESIAN COORDINATES (ANGSTROEM)
---------------------------------
  Fe    -0.756100    6.089300    5.152600
  N     -1.835400    7.541900    6.387100
  N      0.433900    6.264700    6.942400
  N      2.334900    4.942600    6.592200
  H      2.144400    4.829600    5.740000
  H      3.055200    4.572300    6.935400
  S      1.875900    5.935600    9.056200
  C     -2.981900    8.136900    6.005800
  H     -3.274500    8.043000    5.107200
  C     -3.741800    8.879000    6.883800
  H     -4.546000    9.294300    6.595300
  C     -3.316900    9.009700    8.200800
  H     -3.832800    9.501200    8.829400
  C     -2.140800    8.417400    8.578000
  H     -1.817600    8.511400    9.466300
  C     -1.431500    7.682100    7.654700
  C     -0.175200    6.965900    7.980300
  C      0.448600    6.908800    9.173600
  H      0.149300    7.341700    9.965100
  C      1.532000    5.672400    7.362000
  N      0.491800    4.613100    4.199300
  C      0.907000    4.306700    3.174000
  Se     1.550000    3.843000    1.581400
  N      0.323300    7.541900    3.918000
  N     -1.946100    6.264700    3.362800
  N     -3.847100    4.942600    3.712900
  H     -3.656600    4.829600    4.565200
  H     -4.567400    4.572300    3.369800
  S     -3.388000    5.935600    1.249000
  C      1.469700    8.136900    4.299300
  H      1.762400    8.043000    5.197900
  C      2.229700    8.879000    3.421300
  H      3.033900    9.294300    3.709900
  C      1.804700    9.009700    2.104300
  H      2.320700    9.501200    1.475700
  C      0.628600    8.417400    1.727100
  H      0.305400    8.511400    0.838800
  C     -0.080700    7.682100    2.650500
  C     -1.337000    6.965900    2.324800
  C     -1.960800    6.908800    1.131500
  H     -1.661500    7.341700    0.340100
  C     -3.044100    5.672400    2.943100
  N     -2.004000    4.613100    6.105800
  C     -2.419100    4.306700    7.131200
  Se    -3.062200    3.843000    8.723700

----------------------------
CARTESIAN COORDINATES (A.U.)
----------------------------
  NO LB      ZA    FRAG     MASS         X           Y           Z
   0 Fe   26.0000    0    55.850   -1.428822   11.507109    9.737003
   1 N     7.0000    0    14.007   -3.468403   14.252126   12.069870
   2 N     7.0000    0    14.007    0.819952   11.838567   13.119235
   3 N     7.0000    0    14.007    4.412322    9.340160   12.457453
   4 H     1.0000    0     1.008    4.052329    9.126621   10.847028
   5 H     1.0000    0     1.008    5.773491    8.640395   13.106007
   6 S    16.0000    0    32.060    3.544937   11.216658   17.113738
   7 C     6.0000    0    12.011   -5.634974   15.376513   11.349317
   8 H     1.0000    0     1.008   -6.187908   15.199067    9.651209
   9 C     6.0000    0    12.011   -7.070977   16.778878   13.008497
  10 H     1.0000    0     1.008   -8.590695   17.563682   12.463311
  11 C     6.0000    0    12.011   -6.268033   17.025866   15.497266
  12 H     1.0000    0     1.008   -7.242942   17.954666   16.685148
  13 C     6.0000    0    12.011   -4.045526   15.906581   16.210071
  14 H     1.0000    0     1.008   -3.434766   16.084215   17.888715
  15 C     6.0000    0    12.011   -2.705143   14.517065   14.465287
  16 C     6.0000    0    12.011   -0.331080   13.163643   15.080581
  17 C     6.0000    0    12.011    0.847731   13.055740   17.335592
  18 H     1.0000    0     1.008    0.282136   13.873802   18.831310
  19 C     6.0000    0    12.011    2.895060   10.719283   13.912164
  20 N     7.0000    0    14.007    0.929367    8.717496    7.935527
  21 C     6.0000    0    12.011    1.713982    8.138484    5.997991
  22 Se   34.0000    0    78.960    2.929076    7.262218    2.988413
  23 N     7.0000    0    14.007    0.610948   14.252126    7.403947
  24 N     7.0000    0    14.007   -3.677596   11.838567    6.354771
  25 N     7.0000    0    14.007   -7.269965    9.340160    7.016364
  26 H     1.0000    0     1.008   -6.909973    9.126621    8.626978
  27 H     1.0000    0     1.008   -8.631135    8.640395    6.367999
  28 S    16.0000    0    32.060   -6.402392   11.216658    2.360268
  29 C     6.0000    0    12.011    2.777330   15.376513    8.124500
  30 H     1.0000    0     1.008    3.330453   15.199067    9.822607
  31 C     6.0000    0    12.011    4.213522   16.778878    6.465320
  32 H     1.0000    0     1.008    5.733240   17.563682    7.010695
  33 C     6.0000    0    12.011    3.410389   17.025866    3.976551
  34 H     1.0000    0     1.008    4.385487   17.954666    2.788669
  35 C     6.0000    0    12.011    1.187882   15.906581    3.263746
  36 H     1.0000    0     1.008    0.577122   16.084215    1.585102
  37 C     6.0000    0    12.011   -0.152501   14.517065    5.008719
  38 C     6.0000    0    12.011   -2.526564   13.163643    4.393235
  39 C     6.0000    0    12.011   -3.705375   13.055740    2.138225
  40 H     1.0000    0     1.008   -3.139780   13.873802    0.642696
  41 C     6.0000    0    12.011   -5.752515   10.719283    5.561653
  42 N     7.0000    0    14.007   -3.787011    8.717496   11.538290
  43 C     6.0000    0    12.011   -4.571436    8.138484   13.476015
  44 Se   34.0000    0    78.960   -5.786719    7.262218   16.485404

--------------------------------
INTERNAL COORDINATES (ANGSTROEM)
--------------------------------
 Fe     0   0   0     0.000000000000     0.00000000     0.00000000
 N      1   0   0     2.190644996342     0.00000000     0.00000000
 N      1   2   0     2.156443646377    75.53593428     0.00000000
 N      3   1   2     2.341877334533   106.13580230   183.93505798
 H      4   3   1     0.880513537659    92.38184986    10.17965538
 H      4   3   1     0.879625158803   147.56791037   190.28050354
 S      3   1   2     2.579887836709   167.98641674   135.01275822
 C      2   1   3     1.346802487375   123.56018455   179.75140630
 H      8   2   1     0.949691492012   119.10952775   349.52333305
 C      8   2   1     1.378058206318   121.79920570   169.56139416
 H     10   8   2     0.949970515332   120.58012706   179.74582641
 C     10   8   2     1.390004136684   119.06092485   359.59884607
 H     12  10   8     0.950191043949   120.62888162   181.27259639
 C     12  10   8     1.369784778715   118.86257047     1.26549719
 H     14  12  10     0.949932171263   120.45380389   178.38518935
 C      2   1   3     1.337759698152   117.04680491   349.51577884
 C      3   1   2     1.392810346027   114.71520364    10.52983268
 C     17   3   1     1.347720942926   115.85256463   169.78802968
 H     18  17   3     0.950502577587   124.90813477   179.64880834
 C      3   1   2     1.316323311349   133.49727765   177.35059143
 N      1   2   3     2.155273008229   171.37434971     8.46832659
 C     21   1   3     1.147829294800   141.94007157   218.16063640
 Se    22  21   1     1.779000126476   179.62216142    28.18306767
 N      1   2   3     2.190750620221    96.93015958   263.32250241
 N      1   2   3     2.156443646377    98.15804012   187.01786642
 N     25   1   2     2.341862382806   106.13802203   279.03210923
 H     26  25   1     0.880610322447    92.38020696    10.18143169
 H     26  25   1     0.879586147003   147.57608218   190.27718462
 S     25   1   2     2.579831944139   167.98636178   230.10196677
 C     24   1   2     1.346717360845   123.56002221    83.06932240
 H     30  24   1     0.949722306782   119.11488701   349.53249782
 C     30  24   1     1.378113351651   121.80143354   169.56197958
 H     32  30  24     0.950000889473   120.57731464   179.74668922
 C     32  30  24     1.390034708200   119.05489631   359.60633738
 H     34  32  30     0.950245342004   120.62145434   181.27366382
 C     34  32  30     1.369784778715   118.86591701     1.26073708
 H     36  34  32     0.949932171263   120.45380389   178.38753031
 C     24   1   2     1.337695140905   117.04362256   252.84366615
 C     25   1   2     1.392884866024   114.71755113   105.62944724
 C     39  25   1     1.347720942926   115.85512652   169.78785157
 H     40  39  25     0.950419307464   124.90512895   179.64594884
 C     25   1   2     1.316271772849   133.50107551   272.44272433
 N      1   2   3     2.155228779039    85.39258229    91.67523272
 C     43   1   2     1.147882454784   141.93322594   315.89716958
 Se    44  43   1     1.778946752997   179.62483262    29.77592095

---------------------------
INTERNAL COORDINATES (A.U.)
---------------------------
 Fe     0   0   0     0.000000000000     0.00000000     0.00000000
 N      1   0   0     4.139719099732     0.00000000     0.00000000
 N      1   2   0     4.075087914887    75.53593428     0.00000000
 N      3   1   2     4.425506801505   106.13580230   183.93505798
 H      4   3   1     1.663929443385    92.38184986    10.17965538
 H      4   3   1     1.662250650646   147.56791037   190.28050354
 S      3   1   2     4.875281467615   167.98641674   135.01275822
 C      2   1   3     2.545087857623   123.56018455   179.75140630
 H      8   2   1     1.794656831618   119.10952775   349.52333305
 C      8   2   1     2.604152606544   121.79920570   169.56139416
 H     10   8   2     1.795184109277   120.58012706   179.74582641
 C     10   8   2     2.626727143351   119.06092485   359.59884607
 H     12  10   8     1.795600847967   120.62888162   181.27259639
 C     12  10   8     2.588518094186   118.86257047     1.26549719
 H     14  12  10     1.795111649488   120.45380389   178.38518935
 C      2   1   3     2.527999462505   117.04680491   349.51577884
 C      3   1   2     2.632030110483   114.71520364    10.52983268
 C     17   3   1     2.546823487079   115.85256463   169.78802968
 H     18  17   3     1.796189561226   124.90813477   179.64880834
 C      3   1   2     2.487490562145   133.49727765   177.35059143
 N      1   2   3     4.072875729385   171.37434971     8.46832659
 C     21   1   3     2.169083015663   141.94007157   218.16063640
 Se    22  21   1     3.361823031250   179.62216142    28.18306767
 N      1   2   3     4.139918699936    96.93015958   263.32250241
 N      1   2   3     4.075087914887    98.15804012   187.01786642
 N     25   1   2     4.425478546835   106.13802203   279.03210923
 H     26  25   1     1.664112340129    92.38020696    10.18143169
 H     26  25   1     1.662176929027   147.57608218   190.27718462
 S     25   1   2     4.875175845964   167.98636178   230.10196677
 C     24   1   2     2.544926991793   123.56002221    83.06932240
 H     30  24   1     1.794715063095   119.11488701   349.53249782
 C     30  24   1     2.604256816122   121.80143354   169.56197958
 H     32  30  24     1.795241508086   120.57731464   179.74668922
 C     32  30  24     2.626784915143   119.05489631   359.60633738
 H     34  32  30     1.795703456422   120.62145434   181.27366382
 C     34  32  30     2.588518094186   118.86591701     1.26073708
 H     36  34  32     1.795111649488   120.45380389   178.38753031
 C     24   1   2     2.527877466987   117.04362256   252.84366615
 C     25   1   2     2.632170932870   114.71755113   105.62944724
 C     39  25   1     2.546823487079   115.85512652   169.78785157
 H     40  39  25     1.796032203498   124.90512895   179.64594884
 C     25   1   2     2.487393168496   133.50107551   272.44272433
 N      1   2   3     4.072792148330    85.39258229    91.67523272
 C     43   1   2     2.169183473474   141.93322594   315.89716958
 Se    44  43   1     3.361722169994   179.62483262    29.77592095

---------------------
BASIS SET INFORMATION
---------------------
There are 6 groups of distinct atoms

 Group   1 Type Fe  : 17s11p7d1f contracted to 6s4p4d1f pattern {842111/6311/4111/1}
 Group   2 Type N   : 11s6p2d1f contracted to 5s3p2d1f pattern {62111/411/11/1}
 Group   3 Type H   : 5s1p contracted to 3s1p pattern {311/1}
 Group   4 Type S   : 14s9p3d1f contracted to 5s5p2d1f pattern {73211/51111/21/1}
 Group   5 Type C   : 11s6p2d1f contracted to 5s3p2d1f pattern {62111/411/11/1}
 Group   6 Type Se  : 17s13p8d1f contracted to 6s5p4d1f pattern {842111/64111/5111/1}

Atom   0Fe   basis set group =>   1
Atom   1N    basis set group =>   2
Atom   2N    basis set group =>   2
Atom   3N    basis set group =>   2
Atom   4H    basis set group =>   3
Atom   5H    basis set group =>   3
Atom   6S    basis set group =>   4
Atom   7C    basis set group =>   5
Atom   8H    basis set group =>   3
Atom   9C    basis set group =>   5
Atom  10H    basis set group =>   3
Atom  11C    basis set group =>   5
Atom  12H    basis set group =>   3
Atom  13C    basis set group =>   5
Atom  14H    basis set group =>   3
Atom  15C    basis set group =>   5
Atom  16C    basis set group =>   5
Atom  17C    basis set group =>   5
Atom  18H    basis set group =>   3
Atom  19C    basis set group =>   5
Atom  20N    basis set group =>   2
Atom  21C    basis set group =>   5
Atom  22Se   basis set group =>   6
Atom  23N    basis set group =>   2
Atom  24N    basis set group =>   2
Atom  25N    basis set group =>   2
Atom  26H    basis set group =>   3
Atom  27H    basis set group =>   3
Atom  28S    basis set group =>   4
Atom  29C    basis set group =>   5
Atom  30H    basis set group =>   3
Atom  31C    basis set group =>   5
Atom  32H    basis set group =>   3
Atom  33C    basis set group =>   5
Atom  34H    basis set group =>   3
Atom  35C    basis set group =>   5
Atom  36H    basis set group =>   3
Atom  37C    basis set group =>   5
Atom  38C    basis set group =>   5
Atom  39C    basis set group =>   5
Atom  40H    basis set group =>   3
Atom  41C    basis set group =>   5
Atom  42N    basis set group =>   2
Atom  43C    basis set group =>   5
Atom  44Se   basis set group =>   6
---------------------------------
AUXILIARY/J BASIS SET INFORMATION
---------------------------------
There are 6 groups of distinct atoms

 Group   1 Type Fe  : 19s5p5d3f3g contracted to 8s5p5d2f3g pattern {121111111/11111/11111/21/111}
 Group   2 Type N   : 12s5p4d2f1g contracted to 6s4p3d1f1g pattern {711111/2111/211/2/1}
 Group   3 Type H   : 5s2p1d contracted to 3s1p1d pattern {311/2/1}
 Group   4 Type S   : 14s5p5d2f1g contracted to 8s4p3d1f1g pattern {71111111/2111/311/2/1}
 Group   5 Type C   : 12s5p4d2f1g contracted to 6s4p3d1f1g pattern {711111/2111/211/2/1}
 Group   6 Type Se  : 19s5p5d3f1g contracted to 8s4p3d2f1g pattern {121111111/2111/311/21/1}

Atom   0Fe   basis set group =>   1
Atom   1N    basis set group =>   2
Atom   2N    basis set group =>   2
Atom   3N    basis set group =>   2
Atom   4H    basis set group =>   3
Atom   5H    basis set group =>   3
Atom   6S    basis set group =>   4
Atom   7C    basis set group =>   5
Atom   8H    basis set group =>   3
Atom   9C    basis set group =>   5
Atom  10H    basis set group =>   3
Atom  11C    basis set group =>   5
Atom  12H    basis set group =>   3
Atom  13C    basis set group =>   5
Atom  14H    basis set group =>   3
Atom  15C    basis set group =>   5
Atom  16C    basis set group =>   5
Atom  17C    basis set group =>   5
Atom  18H    basis set group =>   3
Atom  19C    basis set group =>   5
Atom  20N    basis set group =>   2
Atom  21C    basis set group =>   5
Atom  22Se   basis set group =>   6
Atom  23N    basis set group =>   2
Atom  24N    basis set group =>   2
Atom  25N    basis set group =>   2
Atom  26H    basis set group =>   3
Atom  27H    basis set group =>   3
Atom  28S    basis set group =>   4
Atom  29C    basis set group =>   5
Atom  30H    basis set group =>   3
Atom  31C    basis set group =>   5
Atom  32H    basis set group =>   3
Atom  33C    basis set group =>   5
Atom  34H    basis set group =>   3
Atom  35C    basis set group =>   5
Atom  36H    basis set group =>   3
Atom  37C    basis set group =>   5
Atom  38C    basis set group =>   5
Atom  39C    basis set group =>   5
Atom  40H    basis set group =>   3
Atom  41C    basis set group =>   5
Atom  42N    basis set group =>   2
Atom  43C    basis set group =>   5
Atom  44Se   basis set group =>   6


           ************************************************************
           *        Program running with 16 parallel MPI-processes    *
           *              working on a common directory               *
           ************************************************************
------------------------------------------------------------------------------
                             ORCA STARTUP CALCULATIONS
                           -- RI-GTO INTEGRALS CHOSEN --
------------------------------------------------------------------------------
------------------------------------------------------------------------------
                   ___                                                        
                  /   \      - P O W E R E D   B Y -                         
                 /     \                                                     
                 |  |  |   _    _      __       _____    __    __             
                 |  |  |  | |  | |    /  \     |  _  \  |  |  /  |          
                  \  \/   | |  | |   /    \    | | | |  |  | /  /          
                 / \  \   | |__| |  /  /\  \   | |_| |  |  |/  /          
                |  |  |   |  __  | /  /__\  \  |    /   |      \           
                |  |  |   | |  | | |   __   |  |    \   |  |\   \          
                \     /   | |  | | |  |  |  |  | |\  \  |  | \   \       
                 \___/    |_|  |_| |__|  |__|  |_| \__\ |__|  \__/        
                                                                              
                      - O R C A' S   B I G   F R I E N D -                    
                                      &                                       
                       - I N T E G R A L  F E E D E R -                       
                                                                              
 v1 FN, 2020, v2 2021, v3 2022-2024                                           
------------------------------------------------------------------------------


----------------------
SHARK INTEGRAL PACKAGE
----------------------

Number of atoms                             ...     45
Number of basis functions                   ...   1105
Number of shells                            ...    415
Maximum angular momentum                    ...      3
Integral batch strategy                     ... SHARK/LIBINT Hybrid
RI-J (if used) integral strategy            ... SPLIT-RIJ (Revised 2003 algorithm where possible)
Printlevel                                  ...      1
Contraction scheme used                     ... SEGMENTED contraction
Prescreening option                         ... SCHWARTZ
   Thresh                                   ... 2.500e-11
   Tcut                                     ... 2.500e-12
   Tpresel                                  ... 2.500e-12 
Coulomb Range Separation                    ... NOT USED
Exchange Range Separation                   ... NOT USED
Multipole approximations                    ... NOT USED
Finite Nucleus Model                        ... NOT USED
CABS basis                                  ... NOT available
Auxiliary Coulomb fitting basis             ... AVAILABLE
   # of basis functions in Aux-J            ...   1735
   # of shells in Aux-J                     ...    553
   Maximum angular momentum in Aux-J        ...      4
Auxiliary J/K fitting basis                 ... NOT available
Auxiliary Correlation fitting basis         ... NOT available
Auxiliary 'external' fitting basis          ... NOT available

Checking pre-screening integrals            ... done (  0.0 sec) Dimension = 415
Check shell pair data                       ... done (  0.0 sec)
Shell pair information
Shell pair cut-off parameter TPreSel        ...   2.5e-12
Total number of shell pairs                 ...     86320
Shell pairs after pre-screening             ...     57180
Total number of primitive shell pairs       ...    299255
Primitive shell pairs kept                  ...    118740
          la=0 lb=0:  12611 shell pairs
          la=1 lb=0:  16056 shell pairs
          la=1 lb=1:   5135 shell pairs
          la=2 lb=0:   8600 shell pairs
          la=2 lb=1:   5614 shell pairs
          la=2 lb=2:   1593 shell pairs
          la=3 lb=0:   3562 shell pairs
          la=3 lb=1:   2426 shell pairs
          la=3 lb=2:   1302 shell pairs
          la=3 lb=3:    281 shell pairs

Calculating one electron integrals          ... done (  0.1 sec)
done (  0.2 sec)
Calculating Nuclear repulsion               ... done (  0.0 sec) ENN=   5364.166150074009 Eh

Diagonalization of the overlap matrix:
Smallest eigenvalue                        ... 1.383e-05
Time for diagonalization                   ...    0.126 sec
Threshold for overlap eigenvalues          ... 1.000e-07
Number of eigenvalues below threshold      ... 0
Time for construction of square roots      ...    0.138 sec
Total time needed                          ...    0.294 sec

-------------------
DFT GRID GENERATION
-------------------

General Integration Accuracy     IntAcc      ... 4.959
Radial Grid Type                 RadialGrid  ... OptM3 with GC (2021)
Angular Grid (max. ang.)         AngularGrid ... 6 (Lebedev-590)
Angular grid pruning method      GridPruning ... 4 (adaptive)
Weight generation scheme         WeightScheme... mBecke (2022)
Basis function cutoff            BFCut       ... 1.0000e-11
Integration weight cutoff        WCut        ... 1.0000e-14
Partially contracted basis set               ... off
Rotationally invariant grid construction     ... off
Angular grids for H and He will be reduced by one unit
Core-polarized basis detected: some atoms will have their core
                               angular grid increased.

Total number of grid points                  ...   600160
Total number of batches                      ...     9399
Average number of points per batch           ...       63
Average number of grid points per atom       ...    13337

--------------------
COSX GRID GENERATION
--------------------

GRIDX 1
-------
General Integration Accuracy     IntAcc      ... 4.020
Radial Grid Type                 RadialGrid  ... OptM3 with GC (2021)
Angular Grid (max. ang.)         AngularGrid ... 2 (Lebedev-110)
Angular grid pruning method      GridPruning ... 4 (adaptive)
Weight generation scheme         WeightScheme... mBecke (2022)
Basis function cutoff            BFCut       ... 1.0000e-11
Integration weight cutoff        WCut        ... 1.0000e-14
Partially contracted basis set               ... on
Rotationally invariant grid construction     ... off
Angular grids for H and He will be reduced by one unit
Core-polarized basis detected: some atoms will have their core
                               angular grid increased.

Total number of grid points                  ...    76391
Total number of batches                      ...      621
Average number of points per batch           ...      123
Average number of grid points per atom       ...     1698
UseSFitting                                  ... on

GRIDX 2
-------
General Integration Accuracy     IntAcc      ... 4.338
Radial Grid Type                 RadialGrid  ... OptM3 with GC (2021)
Angular Grid (max. ang.)         AngularGrid ... 3 (Lebedev-194)
Angular grid pruning method      GridPruning ... 4 (adaptive)
Weight generation scheme         WeightScheme... mBecke (2022)
Basis function cutoff            BFCut       ... 1.0000e-11
Integration weight cutoff        WCut        ... 1.0000e-14
Partially contracted basis set               ... on
Rotationally invariant grid construction     ... off
Angular grids for H and He will be reduced by one unit
Core-polarized basis detected: some atoms will have their core
                               angular grid increased.

Total number of grid points                  ...   147863
Total number of batches                      ...     1178
Average number of points per batch           ...      125
Average number of grid points per atom       ...     3286
UseSFitting                                  ... on

GRIDX 3
-------
General Integration Accuracy     IntAcc      ... 4.871
Radial Grid Type                 RadialGrid  ... OptM3 with GC (2021)
Angular Grid (max. ang.)         AngularGrid ... 4 (Lebedev-302)
Angular grid pruning method      GridPruning ... 4 (adaptive)
Weight generation scheme         WeightScheme... mBecke (2022)
Basis function cutoff            BFCut       ... 1.0000e-11
Integration weight cutoff        WCut        ... 1.0000e-14
Partially contracted basis set               ... on
Rotationally invariant grid construction     ... off
Angular grids for H and He will be reduced by one unit
Core-polarized basis detected: some atoms will have their core
                               angular grid increased.

Total number of grid points                  ...   271484
Total number of batches                      ...     2145
Average number of points per batch           ...      126
Average number of grid points per atom       ...     6033
UseSFitting                                  ... on
Initializing property integral containers    ... done (  0.0 sec)

SHARK setup successfully completed in   9.4 seconds

Maximum memory used throughout the entire STARTUP-calculation: 210.7 MB


           ************************************************************
           *        Program running with 16 parallel MPI-processes    *
           *              working on a common directory               *
           ************************************************************
-------------------------------------------------------------------------------
                                 ORCA GUESS
                   Start orbitals & Density for SCF / CASSCF
-------------------------------------------------------------------------------

------------
SCF SETTINGS
------------
Hamiltonian:
 Density Functional     Method          .... DFT(GTOs)
 Exchange Functional    Exchange        .... PBE
   PBE kappa parameter   XKappa         ....  0.804000
   PBE mue parameter    XMuePBE         ....  0.219520
 Correlation Functional Correlation     .... PBE
   PBE beta parameter  CBetaPBE         ....  0.066725
 LDA part of GGA corr.  LDAOpt          .... PW91-LDA
 Gradients option       PostSCFGGA      .... off
 Hybrid DFT is turned on
   Fraction HF Exchange ScalHFX         ....  0.250000
   Scaling of DF-GGA-X  ScalDFX         ....  0.750000
   Scaling of DF-GGA-C  ScalDFC         ....  1.000000
   Scaling of DF-LDA-C  ScalLDAC        ....  1.000000
   Perturbative correction              ....  0.000000
   NL short-range parameter             ....  6.900000
 RI-approximation to the Coulomb term is turned on
   Number of AuxJ basis functions       .... 1735
   RIJ-COSX (HFX calculated with COS-X)).... on


General Settings:
 Integral files         IntName         .... POGXUG-S5
 Hartree-Fock type      HFTyp           .... RHF
 Total Charge           Charge          ....    0
 Multiplicity           Mult            ....    1
 Number of Electrons    NEL             ....  304
 Basis Dimension        Dim             .... 1105
 Nuclear Repulsion      ENuc            ....   5364.1661500740 Eh

Convergence Acceleration:
 AO-DIIS                CNVDIIS         .... on
   Start iteration      DIISMaxIt       ....    12
   Startup error        DIISStart       ....  0.200000
   # of expansion vecs  DIISMaxEq       ....     5
   Bias factor          DIISBfac        ....   1.050
   Max. coefficient     DIISMaxC        ....  10.000
 MO-DIIS                CNVKDIIS        .... off
 Trust-Rad. Augm. Hess. CNVTRAH         .... auto
   Auto Start mean grad. ratio tolernc. ....  1.125000
   Auto Start start iteration           ....    50
   Auto Start num. interpolation iter.  ....    10
   Max. Number of Micro iterations      ....    24
   Max. Number of Macro iterations      .... Maxiter - #DIIS iter
   Number of Davidson start vectors     ....     2
   Converg. threshold    (grad. norm)   ....   1.000e-05
   Grad. Scal. Fac. for Micro threshold ....   0.100
   Minimum threshold for Micro iter.    ....   1.000e-02
   NR start threshold (gradient norm)   ....   1.000e-04
   Initial trust radius                 ....   0.400
   Minimum AH scaling param. (alpha)    ....   1.000
   Maximum AH scaling param. (alpha)    .... 1000.000
   Quad. conv. algorithm                .... NR
   White noise on init. David. guess    .... on
   Maximum white noise                  ....   0.010
   Pseudo random numbers                .... off
   Inactive MOs                         .... canonical
   Orbital update algorithm             .... Taylor
   Preconditioner                       .... Diag
   Full preconditioner red. dimension   ....   250
 SOSCF                  CNVSOSCF        .... on
   Start iteration      SOSCFMaxIt      ....   150
   Startup grad/error   SOSCFStart      ....  0.003300
   Hessian update       SOSCFHessUp     .... L-BFGS
 Level Shifting         CNVShift        .... on
   Level shift para.    LevelShift      ....    0.2500
   Turn off err/grad.   ShiftErr        ....    0.0010
 Zerner damping         CNVZerner       .... off
 Static damping         CNVDamp         .... on
   Fraction old density DampFac         ....    0.7000
   Max. Damping (<1)    DampMax         ....    0.9800
   Min. Damping (>=0)   DampMin         ....    0.0000
   Turn off err/grad.   DampErr         ....    0.1000

SCF Procedure:
 Maximum # iterations   MaxIter         ....   125
 SCF integral mode      SCFMode         .... Direct
   Integral package                     .... SHARK and LIBINT hybrid scheme
 Reset frequency        DirectResetFreq ....    20
 Integral Threshold     Thresh          ....  2.500e-11 Eh
 Primitive CutOff       TCut            ....  2.500e-12 Eh

Convergence Tolerance:
 Convergence Check Mode ConvCheckMode   .... Total+1el-Energy
 Convergence forced     ConvForced      .... 0
 Energy Change          TolE            ....  1.000e-08 Eh
 1-El. energy change                    ....  1.000e-05 Eh
 Orbital Gradient       TolG            ....  1.000e-05
 Orbital Rotation angle TolX            ....  1.000e-05
 DIIS Error             TolErr          ....  5.000e-07

------------------------------
INITIAL GUESS: MODEL POTENTIAL
------------------------------
Loading Hartree-Fock densities                     ... done
Calculating cut-offs                               ... done
Initializing the effective Hamiltonian             ... done
Setting up the integral package (SHARK)            ... done
done (   0.4 sec)
Making the grid                                    ... done (   0.3 sec)
Mapping shells                                     ... done
Starting the XC term evaluation                    ... done (   0.2 sec)
  promolecular density results
     # of electrons  =    303.987046519
     EX              =   -423.354512465
     EC              =    -11.792875691
     EX+EC           =   -435.147388156
done (   0.1 sec)
done (   0.2 sec)
Back transforming the eigenvectors                 ... done (   0.1 sec)
done
                      ------------------
                      INITIAL GUESS DONE (   1.4 sec)
                      ------------------
             **** ENERGY FILE WAS UPDATED (POGXUG-S5.en.tmp) ****
Finished Guess after   1.9 sec
Maximum memory used throughout the entire GUESS-calculation: 110.3 MB


           ************************************************************
           *        Program running with 16 parallel MPI-processes    *
           *              working on a common directory               *
           ************************************************************

-------------------------------------------------------------------------------------------
                                      ORCA LEAN-SCF
                              memory conserving SCF solver
-------------------------------------------------------------------------------------------

----------------------------------------D-I-I-S--------------------------------------------
Iteration    Energy (Eh)           Delta-E    RMSDP     MaxDP     DIISErr   Damp  Time(sec)
-------------------------------------------------------------------------------------------
               ***  Starting incremental Fock matrix formation  ***
    1    -7992.5163293185023576     0.00e+00  9.53e-04  5.45e-02  2.73e-01  0.700  21.1
    2    -7993.0018554839816716    -4.86e-01  6.47e-04  3.22e-02  1.27e-01  0.700  10.3
                               ***Turning on AO-DIIS***
    3    -7993.1652068186185716    -1.63e-01  3.37e-04  2.73e-02  4.58e-02  0.700  10.0
    4    -7993.2742562619960154    -1.09e-01  8.01e-04  6.31e-02  2.27e-02  0.000   9.0
    5    -7993.5222530260098210    -2.48e-01  1.63e-04  1.51e-02  7.15e-03  0.000  10.1
                              *** Initializing SOSCF ***
---------------------------------------S-O-S-C-F--------------------------------------
Iteration    Energy (Eh)           Delta-E    RMSDP     MaxDP     MaxGrad    Time(sec)
--------------------------------------------------------------------------------------
    6    -7993.5245327912280118    -2.28e-03  6.59e-05  3.59e-03  2.88e-03     9.3
               *** Restarting incremental Fock matrix formation ***
    7    -7993.5248866466308755    -3.54e-04  6.93e-05  5.01e-03  1.34e-03    21.1
    8    -7993.5249035013866887    -1.69e-05  4.77e-05  6.45e-03  2.51e-03    14.3
    9    -7993.5250842754894620    -1.81e-04  3.40e-05  2.39e-03  1.35e-03    14.0
   10    -7993.5250555680186153     2.87e-05  2.43e-05  1.24e-03  1.06e-03    13.5
   11    -7993.5251570225582327    -1.01e-04  1.49e-05  1.06e-03  2.24e-04    13.0
   12    -7993.5251500718686657     6.95e-06  6.65e-06  4.17e-04  2.90e-04    26.1
   13    -7993.5251635274971704    -1.35e-05  4.88e-06  2.66e-04  8.02e-05    31.8
   14    -7993.5251631352830373     3.92e-07  2.39e-06  1.58e-04  1.03e-04    31.1
   15    -7993.5251640957058044    -9.60e-07  2.23e-06  1.78e-04  3.86e-05    19.5
   16    -7993.5251641799613935    -8.43e-08  1.52e-06  1.46e-04  3.77e-05    25.4
   17    -7993.5251642334978897    -5.35e-08  1.81e-06  2.00e-04  1.29e-05    27.3
   18    -7993.5251641272143388     1.06e-07  2.29e-06  2.01e-04  8.54e-06    44.6
   19    -7993.5251641573804591    -3.02e-08  3.37e-06  2.85e-04  5.95e-06    26.0
   20    -7993.5251642248213102    -6.74e-08  2.57e-06  2.32e-04  4.06e-06    22.2
   21    -7993.5251641705481234     5.43e-08  1.43e-06  1.83e-04  1.86e-06    29.8
                  *** Gradient check signals convergence ***

               *****************************************************
               *                     SUCCESS                       *
               *           SCF CONVERGED AFTER  21 CYCLES          *
               *****************************************************

 done (   34.986 sec)
Old exchange energy                            :   -106.824710306 Eh
New exchange energy                            :   -106.824719799 Eh
Exchange energy change after final integration :     -0.000009494 Eh
Total energy after final integration           :  -7993.525173664 Eh
             **** ENERGY FILE WAS UPDATED (POGXUG-S5.en.tmp) ****

----------------
TOTAL SCF ENERGY
----------------

Total Energy       :      -7993.52517366412576 Eh         -217514.87822 eV

Components:
Nuclear Repulsion  :       5364.16615007400924 Eh          145966.38173 eV
Electronic Energy  :     -13357.69131424455736 Eh         -363481.25969 eV
One Electron Energy:     -21769.71852527816009 Eh         -592384.15730 eV
Two Electron Energy:       8412.02721103360273 Eh          228902.89761 eV

Virial components:
Potential Energy   :     -15975.88750424028331 Eh         -434726.00003 eV
Kinetic Energy     :       7982.36233057615664 Eh          217211.12182 eV
Virial Ratio       :          2.00139843853557

DFT components:
N(Alpha)           :      151.999951303830 electrons
N(Beta)            :      151.999951303830 electrons
N(Total)           :      303.999902607661 electrons
E(X)               :     -319.592938694952 Eh       
E(C)               :      -11.785317012508 Eh       
E(XC)              :     -331.378255707460 Eh       

---------------
SCF CONVERGENCE
---------------

  Last Energy change         ...   -5.4273e-08  Tolerance :   1.0000e-08
  Last MAX-Density change    ...    1.8253e-04  Tolerance :   1.0000e-07
  Last RMS-Density change    ...    1.4282e-06  Tolerance :   5.0000e-09
  Last DIIS Error            ...    2.8831e-03  Tolerance :   5.0000e-07
  Last Orbital Gradient      ...    1.8562e-06  Tolerance :   1.0000e-05
  Last Orbital Rotation      ...    2.0849e-05  Tolerance :   1.0000e-05


----------------
ORBITAL ENERGIES
----------------

  NO   OCC          E(Eh)            E(eV) 
   0   2.0000    -454.201961    -12359.4637 
   1   2.0000    -454.201951    -12359.4634 
   2   2.0000    -256.355275     -6975.7817 
   3   2.0000     -89.085700     -2424.1451 
   4   2.0000     -89.085695     -2424.1450 
   5   2.0000     -58.146495     -1582.2466 
   6   2.0000     -58.146484     -1582.2463 
   7   2.0000     -52.157507     -1419.2779 
   8   2.0000     -52.157497     -1419.2776 
   9   2.0000     -52.155622     -1419.2266 
  10   2.0000     -52.155612     -1419.2263 
  11   2.0000     -52.155473     -1419.2226 
  12   2.0000     -52.155462     -1419.2223 
  13   2.0000     -30.115504      -819.4845 
  14   2.0000     -25.943359      -705.9547 
  15   2.0000     -25.941447      -705.9027 
  16   2.0000     -25.941140      -705.8943 
  17   2.0000     -14.439178      -392.9100 
  18   2.0000     -14.439166      -392.9097 
  19   2.0000     -14.422190      -392.4478 
  20   2.0000     -14.422189      -392.4477 
  21   2.0000     -14.406671      -392.0254 
  22   2.0000     -14.406655      -392.0250 
  23   2.0000     -14.336650      -390.1201 
  24   2.0000     -14.336638      -390.1198 
  25   2.0000     -10.359682      -281.9013 
  26   2.0000     -10.359668      -281.9009 
  27   2.0000     -10.305760      -280.4340 
  28   2.0000     -10.305758      -280.4339 
  29   2.0000     -10.293610      -280.1034 
  30   2.0000     -10.293605      -280.1032 
  31   2.0000     -10.278135      -279.6823 
  32   2.0000     -10.278132      -279.6822 
  33   2.0000     -10.265453      -279.3372 
  34   2.0000     -10.265446      -279.3370 
  35   2.0000     -10.255831      -279.0753 
  36   2.0000     -10.255827      -279.0752 
  37   2.0000     -10.248391      -278.8729 
  38   2.0000     -10.248387      -278.8728 
  39   2.0000     -10.245517      -278.7947 
  40   2.0000     -10.245510      -278.7945 
  41   2.0000     -10.241977      -278.6984 
  42   2.0000     -10.241962      -278.6980 
  43   2.0000      -8.063990      -219.4323 
  44   2.0000      -8.063988      -219.4323 
  45   2.0000      -7.815450      -212.6692 
  46   2.0000      -7.815439      -212.6689 
  47   2.0000      -6.000212      -163.2741 
  48   2.0000      -6.000210      -163.2740 
  49   2.0000      -5.996329      -163.1684 
  50   2.0000      -5.996326      -163.1683 
  51   2.0000      -5.993862      -163.1013 
  52   2.0000      -5.993861      -163.1012 
  53   2.0000      -5.743409      -156.2861 
  54   2.0000      -5.743399      -156.2858 
  55   2.0000      -5.735131      -156.0608 
  56   2.0000      -5.735119      -156.0605 
  57   2.0000      -5.734585      -156.0460 
  58   2.0000      -5.734574      -156.0457 
  59   2.0000      -3.466183       -94.3196 
  60   2.0000      -2.223957       -60.5169 
  61   2.0000      -2.219754       -60.4026 
  62   2.0000      -2.219753       -60.4025 
  63   2.0000      -2.068562       -56.2884 
  64   2.0000      -2.068551       -56.2881 
  65   2.0000      -2.064895       -56.1887 
  66   2.0000      -2.064884       -56.1884 
  67   2.0000      -2.064444       -56.1764 
  68   2.0000      -2.064433       -56.1761 
  69   2.0000      -2.057229       -55.9801 
  70   2.0000      -2.057222       -55.9799 
  71   2.0000      -2.057218       -55.9797 
  72   2.0000      -2.057210       -55.9795 
  73   2.0000      -1.054341       -28.6901 
  74   2.0000      -1.053767       -28.6745 
  75   2.0000      -1.019036       -27.7294 
  76   2.0000      -1.018226       -27.7073 
  77   2.0000      -0.982720       -26.7412 
  78   2.0000      -0.982528       -26.7359 
  79   2.0000      -0.906127       -24.6570 
  80   2.0000      -0.904860       -24.6225 
  81   2.0000      -0.873617       -23.7723 
  82   2.0000      -0.872793       -23.7499 
  83   2.0000      -0.855487       -23.2790 
  84   2.0000      -0.854835       -23.2613 
  85   2.0000      -0.849868       -23.1261 
  86   2.0000      -0.849250       -23.1093 
  87   2.0000      -0.784578       -21.3495 
  88   2.0000      -0.784522       -21.3479 
  89   2.0000      -0.713497       -19.4153 
  90   2.0000      -0.713351       -19.4113 
  91   2.0000      -0.699858       -19.0441 
  92   2.0000      -0.699184       -19.0258 
  93   2.0000      -0.673658       -18.3312 
  94   2.0000      -0.673424       -18.3248 
  95   2.0000      -0.670212       -18.2374 
  96   2.0000      -0.669808       -18.2264 
  97   2.0000      -0.645876       -17.5752 
  98   2.0000      -0.644812       -17.5462 
  99   2.0000      -0.614656       -16.7256 
 100   2.0000      -0.611609       -16.6427 
 101   2.0000      -0.588443       -16.0123 
 102   2.0000      -0.586566       -15.9613 
 103   2.0000      -0.565942       -15.4001 
 104   2.0000      -0.565496       -15.3879 
 105   2.0000      -0.540755       -14.7147 
 106   2.0000      -0.540213       -14.7000 
 107   2.0000      -0.536694       -14.6042 
 108   2.0000      -0.535030       -14.5589 
 109   2.0000      -0.499398       -13.5893 
 110   2.0000      -0.498949       -13.5771 
 111   2.0000      -0.488386       -13.2897 
 112   2.0000      -0.487648       -13.2696 
 113   2.0000      -0.475919       -12.9504 
 114   2.0000      -0.473340       -12.8802 
 115   2.0000      -0.464335       -12.6352 
 116   2.0000      -0.459113       -12.4931 
 117   2.0000      -0.458117       -12.4660 
 118   2.0000      -0.455108       -12.3841 
 119   2.0000      -0.439842       -11.9687 
 120   2.0000      -0.438133       -11.9222 
 121   2.0000      -0.436221       -11.8702 
 122   2.0000      -0.421454       -11.4684 
 123   2.0000      -0.407436       -11.0869 
 124   2.0000      -0.406192       -11.0530 
 125   2.0000      -0.385570       -10.4919 
 126   2.0000      -0.380539       -10.3550 
 127   2.0000      -0.379516       -10.3271 
 128   2.0000      -0.367387        -9.9971 
 129   2.0000      -0.364236        -9.9114 
 130   2.0000      -0.362489        -9.8638 
 131   2.0000      -0.358548        -9.7566 
 132   2.0000      -0.353592        -9.6217 
 133   2.0000      -0.352829        -9.6010 
 134   2.0000      -0.349685        -9.5154 
 135   2.0000      -0.346696        -9.4341 
 136   2.0000      -0.335842        -9.1387 
 137   2.0000      -0.333527        -9.0757 
 138   2.0000      -0.333087        -9.0637 
 139   2.0000      -0.329583        -8.9684 
 140   2.0000      -0.327418        -8.9095 
 141   2.0000      -0.307699        -8.3729 
 142   2.0000      -0.307451        -8.3662 
 143   2.0000      -0.254631        -6.9289 
 144   2.0000      -0.253553        -6.8995 
 145   2.0000      -0.245208        -6.6725 
 146   2.0000      -0.239788        -6.5250 
 147   2.0000      -0.237555        -6.4642 
 148   2.0000      -0.190714        -5.1896 
 149   2.0000      -0.189137        -5.1467 
 150   2.0000      -0.186469        -5.0741 
 151   2.0000      -0.185315        -5.0427 
 152   0.0000      -0.073530        -2.0009 
 153   0.0000      -0.073288        -1.9943 
 154   0.0000      -0.058525        -1.5925 
 155   0.0000      -0.055388        -1.5072 
 156   0.0000      -0.031804        -0.8654 
 157   0.0000      -0.025581        -0.6961 
 158   0.0000      -0.016520        -0.4495 
 159   0.0000      -0.015623        -0.4251 
 160   0.0000      -0.014191        -0.3862 
 161   0.0000      -0.006636        -0.1806 
 162   0.0000       0.033903         0.9225 
*Only the first 10 virtual orbitals were printed.

                    ********************************
                    * MULLIKEN POPULATION ANALYSIS *
                    ********************************

-----------------------
MULLIKEN ATOMIC CHARGES
-----------------------
   0 Fe:    0.247533
   1 N :   -0.092477
   2 N :   -0.193649
[...]
 94:   1179.41   0.000054    0.27  0.000014  ( 0.000337 -0.003736  0.000372)
 95:   1261.38   0.000835    4.22  0.000207  (-0.000068 -0.014372 -0.000034)
 96:   1261.95   0.002175   10.99  0.000538  ( 0.020706 -0.000048  0.010444)
 97:   1311.92   0.000617    3.12  0.000147  ( 0.005409 -0.000009 -0.010840)
 98:   1314.54   0.000646    3.26  0.000153  ( 0.000006  0.012384 -0.000005)
 99:   1330.61   0.001161    5.87  0.000272  ( 0.015745  0.000789 -0.004870)
100:   1330.71   0.001187    6.00  0.000278  (-0.000745  0.016669  0.000234)
101:   1369.48   0.012400   62.67  0.002826  (-0.004045 -0.000418  0.053002)
102:   1369.80   0.002788   14.09  0.000635  ( 0.000075 -0.025184 -0.000899)
103:   1407.75   0.008888   44.92  0.001970  (-0.000073 -0.044387  0.000364)
104:   1408.93   0.021873  110.54  0.004845  (-0.015504  0.000228  0.067854)
105:   1490.17   0.010607   53.60  0.002221  ( 0.004953  0.000046 -0.046868)
106:   1491.75   0.003573   18.06  0.000748  (-0.000014  0.027341  0.000070)
107:   1514.38   0.001455    7.35  0.000300  (-0.000332 -0.017308 -0.000340)
108:   1515.23   0.019688   99.49  0.004055  (-0.043216  0.000128 -0.046766)
109:   1568.25   0.023262  117.56  0.004629  ( 0.055796  0.000231 -0.038931)
110:   1568.91   0.009380   47.41  0.001866  (-0.000289  0.043194  0.000180)
111:   1617.34   0.002187   11.05  0.000422  ( 0.016980  0.000097 -0.011563)
112:   1617.92   0.002255   11.40  0.000435  (-0.000081  0.020855  0.000044)
113:   1631.78   0.000967    4.88  0.000185  (-0.000009 -0.013596 -0.000007)
114:   1632.65   0.006244   31.55  0.001193  (-0.029885  0.000009 -0.017331)
115:   1658.78   0.039830  201.29  0.007493  (-0.082416  0.000068  0.026474)
116:   1659.86   0.033109  167.32  0.006225  ( 0.000061  0.078896 -0.000018)
117:   1674.80   0.014932   75.46  0.002782  (-0.052712 -0.000144 -0.001929)
118:   1677.31   0.015455   78.10  0.002875  ( 0.000135 -0.053622  0.000004)
119:   2164.34   0.228025  1152.35  0.032878  ( 0.099800  0.000336 -0.151385)
120:   2173.52   0.131594  665.02  0.018894  ( 0.000268 -0.137453 -0.000342)
121:   3205.57   0.000543    2.75  0.000053  (-0.007076 -0.000491  0.001614)
122:   3205.59   0.000423    2.14  0.000041  ( 0.000545 -0.006392 -0.000123)
123:   3219.90   0.000026    0.13  0.000003  (-0.000121 -0.001570  0.000198)
124:   3219.91   0.000016    0.08  0.000002  (-0.000637  0.000303  0.001034)
125:   3225.88   0.000025    0.13  0.000002  ( 0.000366  0.001299  0.000783)
126:   3225.89   0.001150    5.81  0.000111  (-0.004470  0.000107 -0.009554)
127:   3234.92   0.001014    5.12  0.000098  (-0.009837 -0.000260  0.000986)
128:   3234.95   0.000894    4.52  0.000086  ( 0.000277 -0.009284 -0.000027)
129:   3287.14   0.002911   14.71  0.000276  (-0.004459  0.000950 -0.015985)
130:   3287.16   0.000629    3.18  0.000060  ( 0.001995  0.002119  0.007161)
131:   3393.94   0.044298  223.86  0.004073  ( 0.000100 -0.063793  0.001887)
132:   3397.00   0.186492  942.45  0.017132  (-0.006112 -0.000912 -0.130743)
133:   3703.43   0.034292  173.30  0.002890  ( 0.042299 -0.000027  0.033171)
134:   3703.58   0.009851   49.79  0.000830  (-0.000045 -0.028811 -0.000029)

* The epsilon (eps) is given for a Dirac delta lineshape.
** The dipole moment derivative (T) already includes vibrational overlap.

The first frequency considered to be a vibration is 6
The total number of vibrations considered is 129


--------------------------
THERMOCHEMISTRY AT 298.15K
--------------------------

Temperature         ...   298.15 K
Pressure            ...     1.00 atm
Total Mass          ...   620.26 AMU
Quasi RRHO          ...     True
Cut-Off Frequency   ...     1.00 cm^-1

Throughout the following assumptions are being made:
  (1) The electronic state is orbitally nondegenerate
  (2) There are no thermally accessible electronically excited states
  (3) Hindered rotations indicated by low frequency modes are not
      treated as such but are treated as vibrations and this may
      cause some error
  (4) All equations used are the standard statistical mechanics
      equations for an ideal gas
  (5) All vibrations are strictly harmonic

freq.      14.17  E(vib)   ...       0.57 
freq.      14.88  E(vib)   ...       0.57 
freq.      16.13  E(vib)   ...       0.57 
freq.      18.05  E(vib)   ...       0.57 
freq.      30.64  E(vib)   ...       0.55 
freq.      38.77  E(vib)   ...       0.54 
freq.      42.55  E(vib)   ...       0.53 
freq.      68.62  E(vib)   ...       0.50 
freq.      71.48  E(vib)   ...       0.50 
freq.      92.60  E(vib)   ...       0.47 
freq.     110.32  E(vib)   ...       0.45 
freq.     126.84  E(vib)   ...       0.43 
freq.     132.59  E(vib)   ...       0.42 
freq.     144.79  E(vib)   ...       0.41 
freq.     147.59  E(vib)   ...       0.41 
freq.     181.18  E(vib)   ...       0.37 
freq.     184.76  E(vib)   ...       0.37 
freq.     197.77  E(vib)   ...       0.35 
freq.     212.36  E(vib)   ...       0.34 
freq.     218.12  E(vib)   ...       0.33 
freq.     232.77  E(vib)   ...       0.32 
freq.     243.12  E(vib)   ...       0.31 
freq.     275.01  E(vib)   ...       0.28 
freq.     280.24  E(vib)   ...       0.28 
freq.     300.92  E(vib)   ...       0.26 
freq.     302.91  E(vib)   ...       0.26 
freq.     329.12  E(vib)   ...       0.24 
freq.     330.58  E(vib)   ...       0.24 
freq.     355.42  E(vib)   ...       0.22 
freq.     358.53  E(vib)   ...       0.22 
freq.     369.38  E(vib)   ...       0.21 
freq.     374.81  E(vib)   ...       0.21 
freq.     377.68  E(vib)   ...       0.21 
freq.     387.40  E(vib)   ...       0.20 
freq.     394.81  E(vib)   ...       0.20 
freq.     441.53  E(vib)   ...       0.17 
freq.     463.19  E(vib)   ...       0.16 
freq.     469.87  E(vib)   ...       0.16 
freq.     472.63  E(vib)   ...       0.15 
freq.     480.77  E(vib)   ...       0.15 
freq.     480.84  E(vib)   ...       0.15 
freq.     489.86  E(vib)   ...       0.15 
freq.     495.00  E(vib)   ...       0.14 
freq.     507.01  E(vib)   ...       0.14 
freq.     509.13  E(vib)   ...       0.14 
freq.     575.61  E(vib)   ...       0.11 
freq.     576.66  E(vib)   ...       0.11 
freq.     612.14  E(vib)   ...       0.10 
freq.     612.17  E(vib)   ...       0.10 
freq.     654.04  E(vib)   ...       0.08 
freq.     656.67  E(vib)   ...       0.08 
freq.     660.38  E(vib)   ...       0.08 
freq.     662.39  E(vib)   ...       0.08 
freq.     686.54  E(vib)   ...       0.07 
freq.     689.19  E(vib)   ...       0.07 
freq.     701.17  E(vib)   ...       0.07 
freq.     701.34  E(vib)   ...       0.07 
freq.     703.99  E(vib)   ...       0.07 
freq.     705.61  E(vib)   ...       0.07 
freq.     708.40  E(vib)   ...       0.07 
freq.     708.69  E(vib)   ...       0.07 
freq.     748.41  E(vib)   ...       0.06 
freq.     748.44  E(vib)   ...       0.06 
freq.     771.29  E(vib)   ...       0.05 
freq.     774.91  E(vib)   ...       0.05 
freq.     811.74  E(vib)   ...       0.05 
freq.     813.53  E(vib)   ...       0.05 
freq.     873.84  E(vib)   ...       0.04 
freq.     874.02  E(vib)   ...       0.04 
freq.     900.22  E(vib)   ...       0.03 
freq.     900.30  E(vib)   ...       0.03 
freq.     954.44  E(vib)   ...       0.03 
freq.     955.06  E(vib)   ...       0.03 
freq.     989.02  E(vib)   ...       0.02 
freq.     989.48  E(vib)   ...       0.02 
freq.    1004.91  E(vib)   ...       0.02 
freq.    1005.10  E(vib)   ...       0.02 
freq.    1043.45  E(vib)   ...       0.02 
freq.    1047.01  E(vib)   ...       0.02 
freq.    1080.41  E(vib)   ...       0.02 
freq.    1083.43  E(vib)   ...       0.02 
freq.    1089.89  E(vib)   ...       0.02 
freq.    1090.67  E(vib)   ...       0.02 
freq.    1130.40  E(vib)   ...       0.01 
freq.    1130.56  E(vib)   ...       0.01 
freq.    1158.68  E(vib)   ...       0.01 
freq.    1158.82  E(vib)   ...       0.01 
freq.    1179.26  E(vib)   ...       0.01 
freq.    1179.41  E(vib)   ...       0.01 
freq.    1261.38  E(vib)   ...       0.01 
freq.    1261.95  E(vib)   ...       0.01 
freq.    1311.92  E(vib)   ...       0.01 
freq.    1314.54  E(vib)   ...       0.01 
freq.    1330.61  E(vib)   ...       0.01 
freq.    1330.71  E(vib)   ...       0.01 
freq.    1369.48  E(vib)   ...       0.01 
freq.    1369.80  E(vib)   ...       0.01 
freq.    1407.75  E(vib)   ...       0.00 
freq.    1408.93  E(vib)   ...       0.00 
freq.    1490.17  E(vib)   ...       0.00 
freq.    1491.75  E(vib)   ...       0.00 
freq.    1514.38  E(vib)   ...       0.00 
freq.    1515.23  E(vib)   ...       0.00 
freq.    1568.25  E(vib)   ...       0.00 
freq.    1568.91  E(vib)   ...       0.00 
freq.    1617.34  E(vib)   ...       0.00 
freq.    1617.92  E(vib)   ...       0.00 
freq.    1631.78  E(vib)   ...       0.00 
freq.    1632.65  E(vib)   ...       0.00 
freq.    1658.78  E(vib)   ...       0.00 
freq.    1659.86  E(vib)   ...       0.00 
freq.    1674.80  E(vib)   ...       0.00 
freq.    1677.31  E(vib)   ...       0.00 
freq.    2164.34  E(vib)   ...       0.00 
freq.    2173.52  E(vib)   ...       0.00 
freq.    3205.57  E(vib)   ...       0.00 
freq.    3205.59  E(vib)   ...       0.00 
freq.    3219.90  E(vib)   ...       0.00 
freq.    3219.91  E(vib)   ...       0.00 
freq.    3225.88  E(vib)   ...       0.00 
freq.    3225.89  E(vib)   ...       0.00 
freq.    3234.92  E(vib)   ...       0.00 
freq.    3234.95  E(vib)   ...       0.00 
freq.    3287.14  E(vib)   ...       0.00 
freq.    3287.16  E(vib)   ...       0.00 
freq.    3393.94  E(vib)   ...       0.00 
freq.    3397.00  E(vib)   ...       0.00 
freq.    3703.43  E(vib)   ...       0.00 
freq.    3703.58  E(vib)   ...       0.00 

------------
INNER ENERGY
------------

The inner energy is: U= E(el) + E(ZPE) + E(vib) + E(rot) + E(trans)
    E(el)   - is the total energy from the electronic structure calculation
              = E(kin-el) + E(nuc-el) + E(el-el) + E(nuc-nuc)
    E(ZPE)  - the the zero temperature vibrational energy from the frequency calculation
    E(vib)  - the the finite temperature correction to E(ZPE) due to population
              of excited vibrational states
    E(rot)  - is the rotational thermal energy
    E(trans)- is the translational thermal energy

Summary of contributions to the inner energy U:
Electronic energy                ...  -7993.79013912 Eh
Zero point energy                ...      0.31087261 Eh     195.08 kcal/mol
Thermal vibrational correction   ...      0.02648038 Eh      16.62 kcal/mol
Thermal rotational correction    ...      0.00141627 Eh       0.89 kcal/mol
Thermal translational correction ...      0.00141627 Eh       0.89 kcal/mol
-----------------------------------------------------------------------
Total thermal energy                  -7993.44995358 Eh


Summary of corrections to the electronic energy:
(perhaps to be used in another calculation)
Total thermal correction                  0.02931292 Eh      18.39 kcal/mol
Non-thermal (ZPE) correction              0.31087261 Eh     195.08 kcal/mol
-----------------------------------------------------------------------
Total correction                          0.34018554 Eh     213.47 kcal/mol


--------
ENTHALPY
--------

The enthalpy is H = U + kB*T
                kB is Boltzmann's constant
Total thermal energy              ...  -7993.44995358 Eh 
Thermal Enthalpy correction       ...      0.00094421 Eh       0.59 kcal/mol
-----------------------------------------------------------------------
Total Enthalpy                    ...  -7993.44900937 Eh


Note: Only C1 symmetry has been detected, increase convergence thresholds 
      if your molecule has a higher symmetry. Symmetry factor of 1.0 is   
      used for the rotational entropy correction. 
 

Note: Rotational entropy computed according to Herzberg 
Infrared and Raman Spectra, Chapter V,1, Van Nostrand Reinhold, 1945 
Point Group:  C1, Symmetry Number:   1  
Rotational constants in cm-1:     0.003531     0.002706     0.002556 

Vibrational entropy computed according to the QRRHO of S. Grimme
Chem.Eur.J. 2012 18 9955 using a reference frequency of 100.0 cm-1


-------
ENTROPY
-------

The entropy contributions are T*S = T*(S(el)+S(vib)+S(rot)+S(trans))
     S(el)   - electronic entropy
     S(vib)  - vibrational entropy
     S(rot)  - rotational entropy
     S(trans)- translational entropy
The entropies will be listed as multiplied by the temperature to get
units of energy

Electronic entropy                ...      0.00000000 Eh      0.00 kcal/mol
Vibrational entropy               ...      0.04814191 Eh     30.21 kcal/mol
Rotational entropy                ...      0.01778550 Eh     11.16 kcal/mol
Translational entropy             ...      0.02145588 Eh     13.46 kcal/mol
-----------------------------------------------------------------------
Final entropy term                ...      0.08738330 Eh     54.83 kcal/mol

In case the symmetry of your molecule has not been determined correctly
or in case you have a reason to use a different symmetry number we print 
out the resulting rotational entropy values for sn=1,12:

 non-linear molecules -----------------------------------
|  sn= 1 | S(rot)=       0.01778550 Eh     11.16 kcal/mol|
|  sn= 2 | S(rot)=       0.01713105 Eh     10.75 kcal/mol|
|  sn= 3 | S(rot)=       0.01674821 Eh     10.51 kcal/mol|
|  sn= 4 | S(rot)=       0.01647659 Eh     10.34 kcal/mol|
|  sn= 5 | S(rot)=       0.01626590 Eh     10.21 kcal/mol|
|  sn= 6 | S(rot)=       0.01609376 Eh     10.10 kcal/mol|
|  sn= 7 | S(rot)=       0.01594821 Eh     10.01 kcal/mol|
|  sn= 8 | S(rot)=       0.01582213 Eh      9.93 kcal/mol|
|  sn= 9 | S(rot)=       0.01571093 Eh      9.86 kcal/mol|
|  sn=10 | S(rot)=       0.01561145 Eh      9.80 kcal/mol|
|  sn=11 | S(rot)=       0.01552146 Eh      9.74 kcal/mol|
|  sn=12 | S(rot)=       0.01543930 Eh      9.69 kcal/mol|
 linear molecules ---------------------------------------
|  Dinfh | S(rot)=       0.01096204 Eh      6.88 kcal/mol|
|  Cinfv | S(rot)=       0.01161649 Eh      7.29 kcal/mol|
 --------------------------------------------------------


-------------------
GIBBS FREE ENERGY
-------------------

The Gibbs free energy is G = H - T*S

Total enthalpy                    ...  -7993.44900937 Eh 
Total entropy correction          ...     -0.08738330 Eh    -54.83 kcal/mol
-----------------------------------------------------------------------
Final Gibbs free energy         ...  -7993.53639267 Eh

For completeness - the Gibbs free energy minus the electronic energy
G-E(el)                           ...      0.25374645 Eh    159.23 kcal/mol


Maximum memory used throughout the entire PROP-calculation: 805.9 MB

--------------------------------
SUGGESTED CITATIONS FOR THIS RUN
--------------------------------

Below you find a list of papers that are relevant to this ORCA run
We neither can nor want to force you to cite these papers, but we appreciate if you do
You receive ORCA, which is the product of decades of hard work by many enthusiastic individuals, for free
The only thing we kindly ask in return is that you cite our papers,
We deeply appreciate it, if you show your appreciation for ORCA by not just citing the generic ORCA reference.

Please note that relegating all ORCA citations to the supporting information does *not* help us.
SI sections are not indexed - citations you put there will not count into any citation statistics
But we need these citations in order to attract the funding resources that allow us to do what we are doing

Therefore, if you are a happy ORCA user, please consider citing a few of the papers listed below in the main body of your paper

In addition to the list printed below, the program has created the file POGXUG-S5.bibtex that contains the list in bibtex format
You can import this file easily into all common literature databanks and citation aid programs


List of essential papers. We consider these as the minimum necessary citations

  1. Neese,F.
     Software update: the ORCA program system, version 5.0
     WIRES Comput. Molec. Sci., 2022 12(1)e1606
     doi.org/10.1002/wcms.1606

List of papers to cite with high priority. The work reported in these papers was absolutely
necessary for this run to complete.
Our perspective: the developers of density functionals and basis sets usually get cited in chemistry papers
Good! But without the algorithms to do something with them, the functionals or basis sets would not do anything.
Hence, in our opinion, the algorithm design and method developments papers are equally worthy of getting cited

  1. Neese,F.
     An improvement of the resolution of the identity approximation for the formation of the Coulomb matrix
     J. Comp. Chem., 2003 24(14)1740-1747
     doi.org/10.1002/jcc.10318
  2. Neese,F.; Wennmohs,F.; Hansen,A.; Becker,U.
     Efficient, approximate and parallel Hartree-Fock and hybrid DFT calculations. A 'chain-of-spheres' algorithm for the Hartree-Fock exchange
     Chem. Phys., 2009 356(1-3)98-109
     doi.org/10.1016/j.chemphys.2008.10.036
  3. Bykov,D.; Petrenko,T.; Izsak,R.; Kossmann,S.; Becker,U.; Valeev,E.; Neese,F.
     Efficient implementation of the analytic second derivatives of Hartree-Fock and hybrid DFT energies: a detailed analysis of different approximations
     Molec. Phys., 2015 113 1961-1977
     doi.org/10.1080/00268976.2015.1025114
  4. Helmich-Paris,B.; de Souza,B.; Neese,F.; Izsák,R.
     An improved chain of spheres for exchange algorithm
     J. Chem. Phys., 2021 155 104109
     doi.org/doi: 10.1063/5.0058766.
  5. Neese,F.
     The SHARK Integral Generation and Digestion System
     J. Comp. Chem., 2022  1-16
     doi.org/10.1002/jcc.26942

List of suggested additional citations. These are papers that are important in the 'surrounding' of 
of this run, or papers that preceded the highly important papers. If you like your results we are grateful for a citation.

  1. Izsak,R.; Neese,F.
     An overlap fitted chain of spheres exchange method
     J. Chem. Phys., 2011 135 144105
     doi.org/10.1063/1.3646921
  2. Izsak,R.; Hansen,A.; Neese,F.
     The resolution of identity and chain of spheres approximations for the LPNO-CCSD singles Fock term
     Molec. Phys., 2012 110 2413-2417
     doi.org/10.1080/00268976.2012.687466
  3. Neese,F.
     The ORCA program system
     WIRES Comput. Molec. Sci., 2012 2(1)73-78
     doi.org/10.1002/wcms.81
  4. Izsak,R.; Neese,F.; Klopper,W.
     Robust fitting techniques in the chain of spheres approximation to the Fock exchange: The role of the complementary space
     J. Chem. Phys., 2013 139 
     doi.org/10.1063/1.4819264
  5. Neese,F.
     Software update: the ORCA program system, version 4.0
     WIRES Comput. Molec. Sci., 2018 8(1)1-6
     doi.org/10.1002/wcms.1327
  6. Neese,F.; Wennmohs,F.; Becker,U.; Riplinger,C.
     The ORCA quantum chemistry program package
     J. Chem. Phys., 2020 152 Art. No. L224108
     doi.org/10.1063/5.0004608

List of optional additional citations

  1. Neese,F.
     Approximate second-order SCF convergence for spin unrestricted wavefunctions
     Chem. Phys. Lett., 2000 325(1-3)93-98
     doi.org/10.1016/s0009-2614(00)00662-x

Timings for individual modules:

Sum of individual times          ...    14191.613 sec (= 236.527 min)
Startup calculation              ...      346.513 sec (=   5.775 min)   2.4 %
SCF iterations                   ...     6304.737 sec (= 105.079 min)  44.4 %
Property integrals               ...     1819.861 sec (=  30.331 min)  12.8 %
SCF Response                     ...     3365.642 sec (=  56.094 min)  23.7 %
Property calculations            ...      868.555 sec (=  14.476 min)   6.1 %
SCF Gradient evaluation          ...     1485.285 sec (=  24.755 min)  10.5 %
Geometry relaxation              ...        1.019 sec (=   0.017 min)   0.0 %
                             ****ORCA TERMINATED NORMALLY****
TOTAL RUN TIME: 0 days 3 hours 57 minutes 43 seconds 502 msec
