
                                 *****************
                                 * O   R   C   A *
                                 *****************

                                            #,                                       
                                            ###                                      
                                            ####                                     
                                            #####                                    
                                            ######                                   
                                           ########,                                 
                                     ,,################,,,,,                         
                               ,,#################################,,                 
                          ,,##########################################,,             
                       ,#########################################, ''#####,          
                    ,#############################################,,   '####,        
                  ,##################################################,,,,####,       
                ,###########''''           ''''###############################       
              ,#####''   ,,,,##########,,,,          '''####'''          '####       
            ,##' ,,,,###########################,,,                        '##       
           ' ,,###''''                  '''############,,,                           
         ,,##''                                '''############,,,,        ,,,,,,###''
      ,#''                                            '''#######################'''  
     '                                                          ''''####''''         
             ,#######,   #######,   ,#######,      ##                                
            ,#'     '#,  ##    ##  ,#'     '#,    #''#        ,####,   ,####,        
            ##       ##  ##   ,#'  ##            #'  '#       #'       #'  '#        
            ##       ##  #######   ##           ,######,      #####,   #    #        
            '#,     ,#'  ##    ##  '#,     ,#' ,#      #,     #,   #   #,  ,#        
             '#######'   ##     ##  '#######'  #'      '#     '####' # '####'        



                #########################################################
                #                        -***-                          #
                #          Department of theory and spectroscopy        #
                #                                                       #
                #                      Frank Neese                      #
                #                                                       #
                #     Directorship, Architecture, Infrastructure        #
                #                    SHARK, DRIVERS                     #
                #        Core code/Algorithms in most modules           #
                #                                                       #
                #        Max Planck Institute fuer Kohlenforschung      #
                #                Kaiser Wilhelm Platz 1                 #
                #                 D-45470 Muelheim/Ruhr                 #
                #                      Germany                          #
                #                                                       #
                #                  All rights reserved                  #
                #                        -***-                          #
                #########################################################


                         Program Version 6.0.1  -  RELEASE   -


 With contributions from (in alphabetic order):
[Max-Planck-Institut fuer Kohlenforschung]                               
  Daniel Aravena         : Magnetic Suceptibility                        
  Michael Atanasov       : Ab Initio Ligand Field Theory (pilot matlab implementation)
  Alexander A. Auer      : GIAO ZORA, VPT2 properties, NMR spectrum      
  Ute Becker             : All parallelization in ORCA, NUMFREQ, NUMCALC 
  Giovanni Bistoni       : ED, misc. LED, open-shell LED, HFLD           
  Martin Brehm           : Molecular dynamics                            
  Dmytro Bykov           : pre 5.0 version of the SCF Hessian            
  Marcos Casanova-Páez   : Triplet and SCS-CIS(D). UHF-(DLPNO)-IP/EA/STEOM-CCSD. UHF-CVS-IP/STEOM-CCSD   
  Vijay G. Chilkuri      : MRCI spin determinant printing, contributions to CSF-ICE 
  Pauline Colinet        : FMM embedding                                 
  Dipayan Datta          : RHF DLPNO-CCSD density                        
  Achintya Kumar Dutta   : EOM-CC, STEOM-CC                              
  Nicolas Foglia         : Exact transition moments, OPA infrastructure, MCD improvements    
  Dmitry Ganyushin       : Spin-Orbit,Spin-Spin,Magnetic field MRCI      
  Miquel Garcia-Rates    : C-PCM and meta-GGA Hessian, CCSD/C-PCM, Gaussian charge scheme 
  Tiago L. C. Gouveia    : GS-ROHF, GS-ROCIS                             
  Yang Guo               : DLPNO-NEVPT2, F12-NEVPT2, CIM, IAO-localization        
  Andreas Hansen         : Spin unrestricted coupled pair/coupled cluster methods 
  Ingolf Harden          : AUTO-CI MPn and infrastructure                
  Benjamin Helmich-Paris : MC-RPA, TRAH-(SCF,CASSCF), AVAS, COSX integrals, SCF dyn. polar. 
  Lee Huntington         : MR-EOM, pCC                                   
  Robert Izsak           : Overlap fitted RIJCOSX, COSX-SCS-MP3, EOM     
  Riya Kayal             : Wick's Theorem for AUTO-CI, AUTO-CI UHF-CCSDT 
  Emily Kempfer          : AUTO-CI, RHF CISDT and CCSDT                  
  Christian Kollmar      : KDIIS, OOCD, Brueckner-CCSD(T), CCSD density, CASPT2, CASPT2-K, improved NEVPT2 
  Axel Koslowski         : Symmetry handling                             
  Simone Kossmann        : meta-GGA functionals, TD-DFT gradient, OOMP2, (MP2 Hessian; deprecated post 5.0) 
  Lucas Lang             : DCDCAS                                        
  Marvin Lechner         : AUTO-CI (C++ implementation), FIC-MRCC        
  Spencer Leger          : CASSCF response                               
  Dagmar Lenk            : GEPOL surface, SMD, ORCA-2-JSON               
  Dimitrios Liakos       : Extrapolation schemes; Compound Job, initial MDCI parallelization 
  Dimitrios Manganas     : Further ROCIS development; embedding schemes. LFT, Crystal Embedding 
  Dimitrios Pantazis     : SARC Basis sets                               
  Anastasios Papadopoulos: AUTO-CI, single reference methods and gradients 
  Taras Petrenko         : pre 6.0 DFT Hessian and TD-DFT gradient, (ASA, deprecated), ECA, 1-Electron XAS/XES, NRVS 
  Peter Pinski           : DLPNO-MP2, DLPNO-MP2 Gradient                 
  Christoph Reimann      : Effective Core Potentials                     
  Marius Retegan         : Local ZFS, SOC                                
  Christoph Riplinger    : Optimizer, TS searches, QM/MM, DLPNO-CCSD(T), (RO)-DLPNO pert. Triples 
  Michael Roemelt        : Original ROCIS implementation                 
  Masaaki Saitow         : Open-shell DLPNO-CCSD energy and density      
  Barbara Sandhoefer     : DKH picture change effects                    
  Kantharuban Sivalingam : CASSCF convergence/infrastructure, NEVPT2 and variants, FIC-MRCI 
  Bernardo de Souza      : ESD, SOC TD-DFT                               
  Georgi L. Stoychev     : AutoAux, RI-MP2 NMR, DLPNO-MP2 response, X2C  
  Van Anh Tran           : RI-MP2 g-tensors                              
  Willem Van den Heuvel  : Paramagnetic NMR                              
  Zikuan Wang            : NOTCH, Electric field optimization            
  Frank Wennmohs         : Technical directorship and infrastructure     
  Hang Xu                : AUTO-CI-Response properties                   
                                                                         
[FACCTs GmbH]                                                            
  Markus Bursch, Miquel Garcia-Rates, Christoph Riplinger, Bernardo de Souza, Georgi L. Stoychev 
                                                                 
  APM, Basis sets (HGBS, AHGBS, def-TZVP (Ac-Lr), def2-XVPD (La-Lu)), CI-OPT, improved COSX, DLPNO-Multilevel,           
  DOCKER, DRACO, updates on ESD, GOAT, IRC, LR-CPCM, MBIS, meta-GGA TD-DFT gradient, ML-optimized integration grids, 
  MM, NACMEs, nearIR, NEB, NEB-TS, NL-DFT gradient (VV10), 2- and 3-layer-ONIOM, interface openCOSMO-RS, QMMM,   
  Crystal-QMMM, SF, symmetry and pop. for TD-DFT, r2SCAN hybrids, SOLVATOR                                   
                                                                         
[Other institutions]                                                     
  V. Asgeirsson          : NEB                                           
  Christoph Bannwarth    : sTDA-DFT, sTD-DFT, PBEh-3c, B97-3c, D3        
  Sebastian Ehlert       : rSCAN, r2SCAN, r2SCAN-3c, D4, dhf basis sets  
  Marvin Friede          : D4 for Fr, Ra, Ac-Lr                          
  Lars Goerigk           : TD-DFT with DH, B97 family of functionals     
  Stefan Grimme          : VdW corrections, initial TS optimization, DFT functionals, gCP, sTDA/sTD-DF 
  Waldemar Hujo          : DFT-NL                                        
  H. Jonsson             : NEB                                           
  Holger Kruse           : gCP                                           
  Marcel Mueller         : wB97X-3c, vDZP basis set                      
  Hagen Neugebauer       : wr2SCAN                                       
  Tobias Risthaus        : range-separated hybrid DFT                    
  Lukas Wittmann         : regularized MP2, r2SCAN double-hybrids, wr2SCAN        
                                                                         
We gratefully acknowledge several colleagues who have allowed us to      
interface, adapt or use parts of their codes:                            
  Ed Valeev, F. Pavosevic, A. Kumar             : LibInt (2-el integral package), F12 methods 
  Garnet Chan, S. Sharma, J. Yang, R. Olivares  : DMRG                   
  Ulf Ekstrom                                   : XCFun DFT Library      
  Mihaly Kallay                                 : mrcc  (arbitrary order and MRCC methods)
  Frank Weinhold                                : gennbo (NPA and NBO analysis)           
  Simon Mueller                                 : openCOSMO-RS                            
  Christopher J. Cramer and Donald G. Truhlar   : smd solvation model                     
  S Lehtola, MJT Oliveira, MAL Marques          : LibXC Library                           
  Liviu Ungur et al                             : ANISO software                          


 Your calculation uses the libint2 library for the computation of 2-el integrals
 For citations please refer to: http://libint.valeyev.net

 Your ORCA version has been built with support for libXC version: 6.2.2
 For citations please refer to: https://libxc.gitlab.io

 This ORCA versions uses:
   CBLAS   interface :  Fast vector & matrix operations
   LAPACKE interface :  Fast linear algebra routines
   SCALAPACK package :  Parallel linear algebra routines
   Shared memory     :  Shared parallel matrices
   BLAS/LAPACK       :  OpenBLAS 0.3.27  USE64BITINT DYNAMIC_ARCH NO_AFFINITY Cooperlake SINGLE_THREADED
        Core in use  :  Cooperlake
   Copyright (c) 2011-2014, The OpenBLAS Project


NOTE: MaxCore=3600 MB was set to SCF,MP2,MDCI,CIPSI,MRCI and CIS
      => If you want to overwrite this, your respective input block should be placed after the MaxCore statement
Warning: RI is on but no J-basis has been assigned. Assigning Def2/J (nothing to worry about!)
================================================================================

----- Orbital basis set information -----
Your calculation utilizes the basis: def2-TZVP
   F. Weigend and R. Ahlrichs, Phys. Chem. Chem. Phys. 7, 3297 (2005).

----- AuxJ basis set information -----
Your calculation utilizes the auxiliary basis: def2/J
   F. Weigend, Phys. Chem. Chem. Phys. 8, 1057 (2006).

================================================================================
                                        WARNINGS
                       Please study these warnings very carefully!
================================================================================


WARNING: Geometry Optimization
  ===> : Switching off AutoStart
         For restart on a previous wavefunction, please use MOREAD

================================================================================
                                       INPUT FILE
================================================================================
NAME = QOPBIH-S5.inp
|  1> ! PBE0 def2-TZVP  Opt Freq DEFGRID3
|  2> 
|  3> %maxcore 3600
|  4> 
|  5> %pal
|  6>     nprocs 16
|  7> end
|  8> 
|  9> *xyz 0 1
| 10> Fe -1.038 3.158 10.3754
| 11> O -2.6556 2.3788 9.4329
| 12> O -0.8349 5.1487 10.0177
| 13> O -3.4005 -1.4126 8.0132
| 14> O 2.2409 7.8372 10.6793
| 15> N -0.634 1.1657 10.9287
| 16> N 0.6986 3.3801 11.5358
| 17> C -3.0042 1.2066 9.1194
| 18> C -2.2368 0.0493 9.4565
| 19> C -1.1444 0.1069 10.3762
| 20> H -0.7492 -0.7771 10.6288
| 21> C 0.372 1.0334 11.9213
| 22> C 0.6614 -0.1457 12.6135
| 23> H 0.1599 -0.932 12.4294
| 24> C 1.6274 -0.1668 13.6085
| 25> H 1.8268 -0.9707 14.089
| 26> C 2.288 1.0011 13.9531
| 27> H 2.9085 0.9974 14.6644
| 28> C 2.0043 2.1801 13.2927
| 29> H 2.4301 2.9775 13.5684
| 30> C 1.0677 2.2117 12.2548
| 31> C 1.5043 4.4044 11.5216
| 32> H 2.3465 4.3073 11.9857
| 33> C 1.3012 5.6717 10.8977
| 34> C 0.1348 5.9597 10.1131
| 35> C -4.3428 1.1025 8.4208
| 36> H -4.7798 1.952 8.4485
| 37> H -4.8993 0.4433 8.8177
| 38> H -4.253 0.8051 7.5025
| 39> C -2.5971 -1.2581 8.9423
| 40> C -1.9885 -2.5167 9.5257
| 41> H -2.1194 -2.5155 10.5074
| 42> H -1.0228 -2.629 9.3161
| 43> H -2.4463 -3.2699 9.1778
| 44> C -0.0121 7.2281 9.3137
| 45> H -0.7914 7.1445 8.7499
| 46> H 0.7664 7.3488 8.7407
| 47> H -0.0602 8.0258 9.8903
| 48> C 2.3299 6.6818 11.1161
| 49> C 3.5529 6.3577 11.9555
| 50> H 4.1576 7.0751 11.8748
| 51> H 3.3658 6.2393 12.8743
| 52> H 4.0293 5.533 11.6282
| 53> O 0.1583 2.8744 8.5468
| 54> H 0.7638 2.4314 8.6298
| 55> O -2.4 3.5551 12.0636
| 56> H -3.0177 4.0202 11.8526
| 57> C -1.9499 4.1284 13.2799
| 58> H -2.6482 4.1164 13.9155
| 59> H -1.5844 5.0203 13.147
| 60> H -1.2236 3.6063 13.618
| 61> C 0.4068 3.6784 7.4386
| 62> H -0.2525 4.2419 7.2976
| 63> H 1.0811 4.3086 7.7726
| 64> H 0.7629 3.3072 6.6674
| 65> *
| 66> 
| 67>                          ****END OF INPUT****
================================================================================

                       *****************************
                       * Geometry Optimization Run *
                       *****************************

Geometry optimization settings:
Update method            Update   .... BFGS
Choice of coordinates    CoordSys .... (2022) Redundant Internals
Initial Hessian          InHess   .... Almloef's Model
Max. no of cycles        MaxIter  .... 165

Convergence Tolerances:
Energy Change            TolE     ....  5.0000e-06 Eh
Max. Gradient            TolMAXG  ....  3.0000e-04 Eh/bohr
RMS Gradient             TolRMSG  ....  1.0000e-04 Eh/bohr
Max. Displacement        TolMAXD  ....  4.0000e-03 bohr
RMS Displacement         TolRMSD  ....  2.0000e-03 bohr
Strict Convergence                .... False

------------------------------------------------------------------------------
                        ORCA OPTIMIZATION COORDINATE SETUP
------------------------------------------------------------------------------

The optimization will be done in redundant internal coordinates (2022)
Making redundant internal coordinates   ...  (2022 redundants) done
Evaluating the initial hessian          ...  (Almloef) done
Evaluating the coordinates              ...  done
Calculating the B-matrix                .... done
Calculating the G-matrix                .... done
Diagonalizing the G-matrix              .... done
Small eigenvalue found = 7.364e-03
Small eigenvalue found = 9.958e-03
Small eigenvalue found = 1.367e-02
Small eigenvalue found = 1.583e-02
Small eigenvalue found = 1.891e-02
Small eigenvalue found = 2.065e-02
Small eigenvalue found = 2.456e-02
Small eigenvalue found = 2.759e-02
The first mode is                       ....  142
The number of degrees of freedom        ....  159

    -----------------------------------------------------------------
                    Redundant Internal Coordinates


    -----------------------------------------------------------------
         Definition                    Initial Value    Approx d2E/dq
    -----------------------------------------------------------------
      1. B(O   1,Fe  0)                  2.0278         0.543733   
      2. B(O   2,Fe  0)                  2.0328         0.533984   
      3. B(N   5,Fe  0)                  2.1068         0.406806   
      4. B(N   6,Fe  0)                  2.1004         0.416504   
      5. B(C   7,O   1)                  1.2625         0.893974   
      6. B(C   8,C   7)                  1.4289         0.541508   
      7. B(C   9,C   8)                  1.4292         0.541076   
      8. B(C   9,N   5)                  1.2988         0.782377   
      9. B(H  10,C   9)                  1.0007         0.499873   
     10. B(C  11,N   5)                  1.4194         0.502244   
     11. B(C  12,C  11)                  1.3976         0.607686   
     12. B(H  13,C  12)                  0.9506         0.600908   
     13. B(C  14,C  12)                  1.3869         0.631840   
     14. B(H  15,C  14)                  0.9575         0.585792   
     15. B(C  16,C  14)                  1.3853         0.635614   
     16. B(H  17,C  16)                  0.9439         0.615867   
     17. B(C  18,C  16)                  1.3808         0.646234   
     18. B(H  19,C  18)                  0.9451         0.613260   
     19. B(C  20,C  18)                  1.3984         0.605865   
     20. B(C  20,C  11)                  1.4084         0.583943   
     21. B(C  20,N   6)                  1.4207         0.499936   
     22. B(C  21,N   6)                  1.3033         0.769535   
     23. B(H  22,C  21)                  0.9665         0.566843   
     24. B(C  23,C  21)                  1.4271         0.545235   
     25. B(C  24,C  23)                  1.4349         0.529727   
     26. B(C  24,O   2)                  1.2677         0.876898   
     27. B(C  25,C   7)                  1.5135         0.396897   
     28. B(H  26,C  25)                  0.9557         0.589753   
     29. B(H  27,C  25)                  0.9496         0.603115   
     30. B(H  28,C  25)                  0.9694         0.560780   
     31. B(C  29,O   3)                  1.2380         0.978235   
     32. B(C  29,C   8)                  1.4503         0.500559   
     33. B(C  30,C  29)                  1.5149         0.394930   
     34. B(H  31,C  30)                  0.9904         0.519213   
     35. B(H  32,C  30)                  0.9945         0.511347   
     36. B(H  33,C  30)                  0.9476         0.607618   
     37. B(C  34,C  24)                  1.5065         0.407300   
     38. B(H  35,C  34)                  0.9655         0.568949   
     39. B(H  36,C  34)                  0.9741         0.551139   
     40. B(H  37,C  34)                  0.9854         0.528725   
     41. B(C  38,C  23)                  1.4582         0.486404   
     42. B(C  38,O   4)                  1.2384         0.976617   
     43. B(C  39,C  38)                  1.5183         0.389922   
     44. B(H  40,C  39)                  0.9417         0.620860   
     45. B(H  41,C  39)                  0.9451         0.613194   
     46. B(H  42,C  39)                  1.0071         0.488332   
     47. B(O  43,Fe  0)                  2.2035         0.285193   
     48. B(H  44,O  43)                  0.7548         1.104848   
     49. B(O  45,Fe  0)                  2.2052         0.283437   
     50. B(H  46,O  45)                  0.8015         0.930793   
     51. B(C  47,O  45)                  1.4180         0.504947   
     52. B(H  48,C  47)                  0.9443         0.614942   
     53. B(H  49,C  47)                  0.9730         0.553454   
     54. B(H  50,C  47)                  0.9562         0.588592   
     55. B(C  51,O  43)                  1.3915         0.556520   
     56. B(H  52,C  51)                  0.8787         0.782637   
     57. B(H  53,C  51)                  0.9815         0.536402   
     58. B(H  54,C  51)                  0.9270         0.655337   
     59. A(N   6,Fe  0,O  43)           91.3297         0.437734   
     60. A(N   6,Fe  0,O  45)           93.9377         0.437247   
     61. A(N   5,Fe  0,O  43)           89.5488         0.435880   
     62. A(O   1,Fe  0,O  45)           86.1195         0.458905   
     63. A(O   2,Fe  0,N   5)          162.3908         0.488789   
     64. A(O  43,Fe  0,O  45)          173.6273         0.408639   
     65. A(O   1,Fe  0,N   6)          163.1265         0.492576   
     66. A(O   2,Fe  0,N   6)           84.8970         0.490926   
     67. A(O   2,Fe  0,O  43)           85.7429         0.457908   
     68. A(N   5,Fe  0,N   6)           78.2499         0.466926   
     69. A(N   5,Fe  0,O  45)           95.0297         0.435395   
     70. A(O   1,Fe  0,O   2)          111.9760         0.515922   
     71. A(O   1,Fe  0,N   5)           84.9319         0.490429   
     72. A(O   1,Fe  0,O  43)           89.8807         0.459422   
     73. A(O   2,Fe  0,O  45)           91.1503         0.457393   
     74. A(Fe  0,O   1,C   7)          133.8247         0.503380   
     75. A(Fe  0,O   2,C  24)          133.6043         0.499889   
     76. A(C   9,N   5,C  11)          120.0011         0.430104   
     77. A(Fe  0,N   5,C  11)          114.0604         0.429568   
     78. A(Fe  0,N   5,C   9)          125.7212         0.465508   
     79. A(Fe  0,N   6,C  20)          114.0442         0.431032   
     80. A(C  20,N   6,C  21)          119.4242         0.428474   
     81. A(Fe  0,N   6,C  21)          126.0309         0.466105   
     82. A(O   1,C   7,C  25)          115.0047         0.425079   
     83. A(C   8,C   7,C  25)          121.8811         0.391518   
     84. A(O   1,C   7,C   8)          123.0323         0.449563   
     85. A(C   7,C   8,C  29)          120.8654         0.407832   
     86. A(C   7,C   8,C   9)          121.9828         0.413498   
     87. A(C   9,C   8,C  29)          117.0243         0.407774   
     88. A(C   8,C   9,H  10)          115.3846         0.364619   
     89. A(N   5,C   9,C   8)          127.3726         0.438780   
     90. A(N   5,C   9,H  10)          117.2303         0.386146   
     91. A(C  12,C  11,C  20)          119.0960         0.427876   
     92. A(N   5,C  11,C  20)          115.9570         0.410899   
     93. A(N   5,C  11,C  12)          124.8725         0.413816   
     94. A(H  13,C  12,C  14)          119.5900         0.386610   
     95. A(C  11,C  12,C  14)          120.8229         0.433977   
     96. A(C  11,C  12,H  13)          119.5176         0.383996   
     97. A(H  15,C  14,C  16)          118.9241         0.385298   
     98. A(C  12,C  14,C  16)          119.8515         0.437503   
     99. A(C  12,C  14,H  15)          121.1851         0.384899   
    100. A(H  17,C  16,C  18)          119.9214         0.389801   
    101. A(C  14,C  16,C  18)          120.1913         0.439284   
    102. A(C  14,C  16,H  17)          119.8421         0.388675   
    103. A(C  16,C  18,C  20)          120.7895         0.435504   
    104. A(C  16,C  18,H  19)          119.2312         0.389512   
    105. A(H  19,C  18,C  20)          119.9485         0.385156   
    106. A(N   6,C  20,C  11)          116.0961         0.410564   
    107. A(C  11,C  20,C  18)          119.1889         0.427646   
    108. A(N   6,C  20,C  18)          124.6267         0.413257   
    109. A(H  22,C  21,C  23)          115.0346         0.373067   
    110. A(N   6,C  21,C  23)          127.9319         0.438077   
    111. A(N   6,C  21,H  22)          117.0335         0.393580   
    112. A(C  21,C  23,C  24)          122.2062         0.412447   
    113. A(C  24,C  23,C  38)          121.0856         0.404195   
    114. A(C  21,C  23,C  38)          116.6976         0.406261   
    115. A(C  23,C  24,C  34)          122.5748         0.391784   
    116. A(O   2,C  24,C  34)          115.0942         0.425581   
    117. A(O   2,C  24,C  23)          122.3111         0.446209   
    118. A(H  26,C  25,H  28)          110.0291         0.338482   
    119. A(C   7,C  25,H  28)          112.1112         0.352724   
    120. A(H  27,C  25,H  28)          103.7239         0.339750   
    121. A(H  26,C  25,H  27)          109.6914         0.342625   
    122. A(C   7,C  25,H  27)          111.9086         0.357104   
    123. A(C   7,C  25,H  26)          109.2622         0.355748   
    124. A(C   8,C  29,C  30)          120.8373         0.385848   
    125. A(O   3,C  29,C  30)          116.4917         0.431616   
    126. A(O   3,C  29,C   8)          122.6702         0.450498   
    127. A(H  32,C  30,H  33)          107.5766         0.334981   
    128. A(H  31,C  30,H  33)          107.5195         0.335832   
    129. A(C  29,C  30,H  33)          108.9600         0.357254   
    130. A(H  31,C  30,H  32)          109.7170         0.326381   
    131. A(C  29,C  30,H  32)          113.7502         0.346983   
    132. A(C  29,C  30,H  31)          109.1251         0.347876   
    133. A(H  36,C  34,H  37)          106.4321         0.331436   
    134. A(H  35,C  34,H  37)          111.8621         0.333187   
    135. A(C  24,C  34,H  37)          112.0755         0.350762   
    136. A(H  35,C  34,H  36)          108.1974         0.335493   
    137. A(C  24,C  34,H  36)          109.7869         0.353234   
    138. A(C  24,C  34,H  35)          108.4015         0.355143   
    139. A(C  23,C  38,C  39)          120.2112         0.383076   
    140. A(O   4,C  38,C  39)          116.8738         0.430499   
    141. A(O   4,C  38,C  23)          122.8718         0.448023   
    142. A(H  41,C  39,H  42)          107.8793         0.332934   
    143. A(H  40,C  39,H  42)          106.9915         0.333621   
    144. A(C  38,C  39,H  42)          112.0961         0.343571   
    145. A(H  40,C  39,H  41)          107.8102         0.346558   
    146. A(C  38,C  39,H  41)          113.8746         0.357034   
    147. A(C  38,C  39,H  40)          107.8926         0.357789   
    148. A(H  44,O  43,C  51)          106.4642         0.414354   
    149. A(Fe  0,O  43,C  51)          133.1179         0.410646   
    150. A(Fe  0,O  43,H  44)          114.8214         0.412776   
    151. A(H  46,O  45,C  47)          103.6408         0.395159   
    152. A(Fe  0,O  45,C  47)          122.2378         0.403204   
    153. A(Fe  0,O  45,H  46)          112.2694         0.400019   
    154. A(H  49,C  47,H  50)          105.2754         0.337629   
    155. A(H  48,C  47,H  50)          108.4655         0.343629   
    156. A(O  45,C  47,H  50)          108.8825         0.368246   
    157. A(H  48,C  47,H  49)          112.4177         0.340106   
    158. A(O  45,C  47,H  49)          111.8813         0.364383   
    159. A(O  45,C  47,H  48)          109.7234         0.371028   
    160. A(H  53,C  51,H  54)          106.0390         0.341950   
    161. A(H  52,C  51,H  54)          114.3007         0.364531   
    162. A(O  43,C  51,H  54)          119.9858         0.381486   
    163. A(H  52,C  51,H  53)           99.1093         0.352320   
    164. A(O  43,C  51,H  53)          102.8653         0.368524   
    165. A(O  43,C  51,H  52)          111.3669         0.393477   
    166. D(C   7,O   1,Fe  0,O   2)    161.3861         0.002953   
    167. D(C   7,O   1,Fe  0,N   5)    -13.5319         0.002953   
    168. D(C   7,O   1,Fe  0,N   6)    -18.1655         0.002953   
    169. D(C   7,O   1,Fe  0,O  43)     76.0257         0.002953   
    170. D(C   7,O   1,Fe  0,O  45)   -108.9391         0.002953   
    171. D(C  24,O   2,Fe  0,N   5)      2.5718         0.002901   
    172. D(C  24,O   2,Fe  0,O   1)   -160.4705         0.002901   
    173. D(C  24,O   2,Fe  0,O  43)    -72.3209         0.002901   
    174. D(C  24,O   2,Fe  0,O  45)    113.2500         0.002901   
    175. D(C  24,O   2,Fe  0,N   6)     19.3988         0.002901   
    176. D(C   9,N   5,Fe  0,O  45)    102.7557         0.002372   
    177. D(C   9,N   5,Fe  0,O  43)    -72.8054         0.002372   
    178. D(C   9,N   5,Fe  0,O   2)   -147.1294         0.002372   
    179. D(C   9,N   5,Fe  0,O   1)     17.1149         0.002372   
    180. D(C   9,N   5,Fe  0,N   6)   -164.2575         0.002372   
    181. D(C  11,N   5,Fe  0,O   2)     27.4779         0.002372   
    182. D(C  11,N   5,Fe  0,O   1)   -168.2777         0.002372   
    183. D(C  21,N   6,Fe  0,O   1)    165.4293         0.002413   
    184. D(C  20,N   6,Fe  0,N   5)    -11.0626         0.002413   
    185. D(C  20,N   6,Fe  0,O  45)     83.2641         0.002413   
    186. D(C  20,N   6,Fe  0,O  43)   -100.3249         0.002413   
    187. D(C  21,N   6,Fe  0,O   2)    -14.1532         0.002413   
    188. D(C  20,N   6,Fe  0,O   2)    174.0694         0.002413   
    189. D(C  20,N   6,Fe  0,O   1)     -6.3481         0.002413   
    190. D(C  25,C   7,O   1,Fe  0)    179.1951         0.063371   
    191. D(C   8,C   7,O   1,Fe  0)      2.4326         0.063371   
    192. D(C  29,C   8,C   7,C  25)     10.6560         0.020039   
    193. D(C  29,C   8,C   7,O   1)   -172.7996         0.020039   
    194. D(C   9,C   8,C   7,C  25)   -165.1164         0.020039   
    195. D(C   9,C   8,C   7,O   1)     11.4281         0.020039   
    196. D(C   8,C   9,N   5,Fe  0)    -11.6708         0.051906   
    197. D(H  10,C   9,C   8,C  29)     -3.2849         0.020006   
    198. D(H  10,C   9,C   8,C   7)    172.6417         0.020006   
    199. D(N   5,C   9,C   8,C  29)    178.0495         0.020006   
    200. D(H  10,C   9,N   5,C  11)     -4.6282         0.051906   
    201. D(H  10,C   9,N   5,Fe  0)    169.6850         0.051906   
    202. D(C   8,C   9,N   5,C  11)    174.0161         0.051906   
    203. D(N   5,C   9,C   8,C   7)     -6.0240         0.020006   
    204. D(C  20,C  11,N   5,C   9)    166.7837         0.019948   
    205. D(C  20,C  11,N   5,Fe  0)     -8.1618         0.019948   
    206. D(C  12,C  11,N   5,C   9)    -16.3966         0.019948   
    207. D(C  12,C  11,N   5,Fe  0)    168.6580         0.019948   
    208. D(C  14,C  12,C  11,C  20)     -0.5700         0.025493   
    209. D(C  14,C  12,C  11,N   5)   -177.2975         0.025493   
    210. D(H  13,C  12,C  11,C  20)    176.3862         0.025493   
    211. D(H  13,C  12,C  11,N   5)     -0.3413         0.025493   
    212. D(C  16,C  14,C  12,H  13)   -174.9580         0.027691   
    213. D(C  16,C  14,C  12,C  11)      1.9961         0.027691   
    214. D(H  15,C  14,C  12,H  13)      2.7400         0.027691   
    215. D(H  15,C  14,C  12,C  11)    179.6940         0.027691   
    216. D(C  18,C  16,C  14,H  15)   -178.9035         0.028044   
    217. D(C  18,C  16,C  14,C  12)     -1.1535         0.028044   
    218. D(H  17,C  16,C  14,H  15)     -1.3481         0.028044   
    219. D(H  17,C  16,C  14,C  12)    176.4019         0.028044   
    220. D(C  20,C  18,C  16,H  17)   -178.6686         0.029054   
    221. D(C  20,C  18,C  16,C  14)     -1.1151         0.029054   
    222. D(H  19,C  18,C  16,H  17)     -0.6891         0.029054   
    223. D(H  19,C  18,C  16,C  14)    176.8644         0.029054   
    224. D(C  18,C  20,N   6,C  21)     21.3878         0.019759   
    225. D(C  18,C  20,N   6,Fe  0)   -166.2430         0.019759   
    226. D(C  11,C  20,N   6,C  21)   -162.0697         0.019759   
    227. D(N   6,C  20,C  11,N   5)     -1.3902         0.023442   
    228. D(C  11,C  20,N   6,Fe  0)     10.2996         0.019759   
    229. D(C  11,C  20,C  18,H  19)   -175.4455         0.025332   
    230. D(C  11,C  20,C  18,C  16)      2.5196         0.025332   
    231. D(N   6,C  20,C  18,H  19)      0.9977         0.025332   
    232. D(N   6,C  20,C  18,C  16)    178.9628         0.025332   
    233. D(C  18,C  20,C  11,C  12)     -1.6631         0.023442   
    234. D(C  18,C  20,C  11,N   5)    175.3511         0.023442   
    235. D(N   6,C  20,C  11,C  12)   -178.4044         0.023442   
    236. D(C  23,C  21,N   6,C  20)   -177.9862         0.050021   
    237. D(C  23,C  21,N   6,Fe  0)     10.6380         0.050021   
    238. D(H  22,C  21,N   6,C  20)      2.0922         0.050021   
    239. D(H  22,C  21,N   6,Fe  0)   -169.2837         0.050021   
    240. D(C  38,C  23,C  21,H  22)     -4.2846         0.020325   
    241. D(C  38,C  23,C  21,N   6)    175.7924         0.020325   
    242. D(C  24,C  23,C  21,H  22)    176.8868         0.020325   
    243. D(C  24,C  23,C  21,N   6)     -3.0362         0.020325   
    244. D(C  34,C  24,C  23,C  38)      8.9113         0.019153   
    245. D(C  34,C  24,C  23,C  21)   -172.3107         0.019153   
    246. D(O   2,C  24,C  23,C  38)   -172.7928         0.019153   
    247. D(O   2,C  24,C  23,C  21)      5.9852         0.019153   
    248. D(C  34,C  24,O   2,Fe  0)    159.8632         0.060656   
    249. D(C  23,C  24,O   2,Fe  0)    -18.5511         0.060656   
    250. D(H  28,C  25,C   7,O   1)    113.5437         0.011699   
    251. D(H  27,C  25,C   7,C   8)     46.4134         0.011699   
    252. D(H  27,C  25,C   7,O   1)   -130.3903         0.011699   
    253. D(H  26,C  25,C   7,C   8)    168.0992         0.011699   
    254. D(H  26,C  25,C   7,O   1)     -8.7045         0.011699   
    255. D(C  30,C  29,C   8,C   9)      9.5207         0.017067   
    256. D(C  30,C  29,C   8,C   7)   -166.4541         0.017067   
    257. D(O   3,C  29,C   8,C   9)   -170.1296         0.017067   
    258. D(O   3,C  29,C   8,C   7)     13.8955         0.017067   
    259. D(H  33,C  30,C  29,O   3)    -10.1461         0.011589   
    260. D(H  32,C  30,C  29,C   8)    -69.8163         0.011589   
    261. D(H  32,C  30,C  29,O   3)    109.8549         0.011589   
    262. D(H  31,C  30,C  29,C   8)     53.0518         0.011589   
    263. D(H  31,C  30,C  29,O   3)   -127.2770         0.011589   
    264. D(H  37,C  34,C  24,O   2)    115.7920         0.012293   
    265. D(H  36,C  34,C  24,C  23)     52.2566         0.012293   
    266. D(H  36,C  34,C  24,O   2)   -126.1531         0.012293   
    267. D(H  35,C  34,C  24,C  23)    170.2558         0.012293   
    268. D(H  35,C  34,C  24,O   2)     -8.1539         0.012293   
    269. D(C  39,C  38,C  23,C  24)    179.6968         0.016109   
    270. D(C  39,C  38,C  23,C  21)      0.8542         0.016109   
    271. D(O   4,C  38,C  23,C  24)      2.1620         0.016109   
    272. D(O   4,C  38,C  23,C  21)   -176.6807         0.016109   
    273. D(H  42,C  39,C  38,O   4)   -128.3971         0.011312   
    274. D(H  41,C  39,C  38,C  23)    -68.8990         0.011312   
    275. D(H  41,C  39,C  38,O   4)    108.7799         0.011312   
    276. D(H  40,C  39,C  38,C  23)    171.4720         0.011312   
    277. D(H  40,C  39,C  38,O   4)    -10.8490         0.011312   
    278. D(C  51,O  43,Fe  0,O   1)     89.6658         0.001933   
    279. D(H  44,O  43,Fe  0,O  45)   -171.9900         0.001933   
    280. D(H  44,O  43,Fe  0,N   6)     42.2494         0.001933   
    281. D(H  44,O  43,Fe  0,N   5)    -35.9862         0.001933   
    282. D(H  44,O  43,Fe  0,O   2)    127.0315         0.001933   
    283. D(C  51,O  43,Fe  0,O   2)    -22.3838         0.001933   
    284. D(H  44,O  43,Fe  0,O   1)   -120.9189         0.001933   
    285. D(C  47,O  45,Fe  0,O   2)    -70.1304         0.001928   
    286. D(C  47,O  45,Fe  0,O   1)    177.9200         0.001928   
    287. D(H  46,O  45,Fe  0,O  43)     -6.8213         0.001928   
    288. D(H  46,O  45,Fe  0,N   6)    138.8574         0.001928   
    289. D(H  46,O  45,Fe  0,N   5)   -142.6127         0.001928   
    290. D(H  46,O  45,Fe  0,O   2)     53.8941         0.001928   
    291. D(H  46,O  45,Fe  0,O   1)    -58.0556         0.001928   
    292. D(H  48,C  47,O  45,Fe  0)   -172.6609         0.021885   
    293. D(H  50,C  47,O  45,Fe  0)    -54.0908         0.021885   
    294. D(H  49,C  47,O  45,H  46)    -66.0361         0.021885   
    295. D(H  49,C  47,O  45,Fe  0)     61.8492         0.021885   
    296. D(H  48,C  47,O  45,H  46)     59.4539         0.021885   
    297. D(H  54,C  51,O  43,Fe  0)   -164.3725         0.026849   
    298. D(H  53,C  51,O  43,H  44)    -72.9075         0.026849   
    299. D(H  53,C  51,O  43,Fe  0)     78.3056         0.026849   
    300. D(H  52,C  51,O  43,H  44)   -178.1993         0.026849   
    301. D(H  52,C  51,O  43,Fe  0)    -26.9862         0.026849   
    -----------------------------------------------------------------

Number of atoms                         .... 55
Number of degrees of freedom            .... 301


         *************************************************************
         *                GEOMETRY OPTIMIZATION CYCLE   1            *
         *************************************************************
---------------------------------
CARTESIAN COORDINATES (ANGSTROEM)
---------------------------------
  Fe    -1.038000    3.158000   10.375400
  O     -2.655600    2.378800    9.432900
  O     -0.834900    5.148700   10.017700
  O     -3.400500   -1.412600    8.013200
  O      2.240900    7.837200   10.679300
  N     -0.634000    1.165700   10.928700
  N      0.698600    3.380100   11.535800
  C     -3.004200    1.206600    9.119400
  C     -2.236800    0.049300    9.456500
  C     -1.144400    0.106900   10.376200
  H     -0.749200   -0.777100   10.628800
  C      0.372000    1.033400   11.921300
  C      0.661400   -0.145700   12.613500
  H      0.159900   -0.932000   12.429400
  C      1.627400   -0.166800   13.608500
  H      1.826800   -0.970700   14.089000
  C      2.288000    1.001100   13.953100
  H      2.908500    0.997400   14.664400
  C      2.004300    2.180100   13.292700
  H      2.430100    2.977500   13.568400
  C      1.067700    2.211700   12.254800
  C      1.504300    4.404400   11.521600
  H      2.346500    4.307300   11.985700
  C      1.301200    5.671700   10.897700
  C      0.134800    5.959700   10.113100
  C     -4.342800    1.102500    8.420800
  H     -4.779800    1.952000    8.448500
  H     -4.899300    0.443300    8.817700
  H     -4.253000    0.805100    7.502500
  C     -2.597100   -1.258100    8.942300
  C     -1.988500   -2.516700    9.525700
  H     -2.119400   -2.515500   10.507400
  H     -1.022800   -2.629000    9.316100
  H     -2.446300   -3.269900    9.177800
  C     -0.012100    7.228100    9.313700
  H     -0.791400    7.144500    8.749900
  H      0.766400    7.348800    8.740700
  H     -0.060200    8.025800    9.890300
  C      2.329900    6.681800   11.116100
  C      3.552900    6.357700   11.955500
  H      4.157600    7.075100   11.874800
  H      3.365800    6.239300   12.874300
  H      4.029300    5.533000   11.628200
  O      0.158300    2.874400    8.546800
  H      0.763800    2.431400    8.629800
  O     -2.400000    3.555100   12.063600
  H     -3.017700    4.020200   11.852600
  C     -1.949900    4.128400   13.279900
  H     -2.648200    4.116400   13.915500
  H     -1.584400    5.020300   13.147000
  H     -1.223600    3.606300   13.618000
  C      0.406800    3.678400    7.438600
  H     -0.252500    4.241900    7.297600
  H      1.081100    4.308600    7.772600
  H      0.762900    3.307200    6.667400

----------------------------
CARTESIAN COORDINATES (A.U.)
----------------------------
  NO LB      ZA    FRAG     MASS         X           Y           Z
   0 Fe   26.0000    0    55.850   -1.961536    5.967755   19.606665
   1 O     8.0000    0    15.999   -5.018357    4.495281   17.825598
   2 O     8.0000    0    15.999   -1.577732    9.729633   18.930709
   3 O     8.0000    0    15.999   -6.426014   -2.669427   15.142753
   4 O     8.0000    0    15.999    4.234687   14.810162   20.180952
   5 N     7.0000    0    14.007   -1.198086    2.202854   20.652250
   6 N     7.0000    0    14.007    1.320163    6.387463   21.799503
   7 C     6.0000    0    12.011   -5.677115    2.280144   17.233169
   8 C     6.0000    0    12.011   -4.226939    0.093163   17.870195
   9 C     6.0000    0    12.011   -2.162603    0.202012   19.608176
  10 H     1.0000    0     1.008   -1.415783   -1.468506   20.085521
  11 C     6.0000    0    12.011    0.702978    1.952843   22.527992
  12 C     6.0000    0    12.011    1.249865   -0.275333   23.836061
  13 H     1.0000    0     1.008    0.302167   -1.761225   23.488162
  14 C     6.0000    0    12.011    3.075340   -0.315206   25.716338
  15 H     1.0000    0     1.008    3.452152   -1.834357   26.624352
  16 C     6.0000    0    12.011    4.323693    1.891805   26.367538
  17 H     1.0000    0     1.008    5.496268    1.884813   27.711700
  18 C     6.0000    0    12.011    3.787578    4.119792   25.119563
  19 H     1.0000    0     1.008    4.592223    5.626660   25.640560
  20 C     6.0000    0    12.011    2.017661    4.179507   23.158216
  21 C     6.0000    0    12.011    2.842715    8.323110   21.772669
  22 H     1.0000    0     1.008    4.434242    8.139617   22.649691
  23 C     6.0000    0    12.011    2.458912   10.717960   20.593668
  24 C     6.0000    0    12.011    0.254735   11.262201   19.110989
  25 C     6.0000    0    12.011   -8.206703    2.083423   15.913006
  26 H     1.0000    0     1.008   -9.032513    3.688745   15.965351
  27 H     1.0000    0     1.008   -9.258335    0.837716   16.663038
  28 H     1.0000    0     1.008   -8.037005    1.521419   14.177670
  29 C     6.0000    0    12.011   -4.907808   -2.377464   16.898498
  30 C     6.0000    0    12.011   -3.757720   -4.755874   18.000964
  31 H     1.0000    0     1.008   -4.005086   -4.753606   19.856108
  32 H     1.0000    0     1.008   -1.932812   -4.968090   17.604878
  33 H     1.0000    0     1.008   -4.622837   -6.179215   17.343529
  34 C     6.0000    0    12.011   -0.022866   13.659129   17.600342
  35 H     1.0000    0     1.008   -1.495529   13.501148   16.534915
  36 H     1.0000    0     1.008    1.448286   13.887219   16.517529
  37 H     1.0000    0     1.008   -0.113762   15.166564   18.689958
  38 C     6.0000    0    12.011    4.402873   12.626772   21.006385
  39 C     6.0000    0    12.011    6.714008   12.014312   22.592621
  40 H     1.0000    0     1.008    7.856725   13.370001   22.440120
  41 H     1.0000    0     1.008    6.360440   11.790568   24.328901
  42 H     1.0000    0     1.008    7.614274   10.455855   21.974113
  43 O     8.0000    0    15.999    0.299144    5.431829   16.151111
  44 H     1.0000    0     1.008    1.443373    4.594680   16.307959
  45 O     8.0000    0    15.999   -4.535343    6.718165   22.796900
  46 H     1.0000    0     1.008   -5.702627    7.597077   22.398168
  47 C     6.0000    0    12.011   -3.684777    7.801545   25.095374
  48 H     1.0000    0     1.008   -5.004373    7.778869   26.296484
  49 H     1.0000    0     1.008   -2.994082    9.486992   24.844229
  50 H     1.0000    0     1.008   -2.312269    6.814919   25.734290
  51 C     6.0000    0    12.011    0.768741    6.951169   14.056917
  52 H     1.0000    0     1.008   -0.477156    8.016029   13.790465
  53 H     1.0000    0     1.008    2.042983    8.142074   14.688085
  54 H     1.0000    0     1.008    1.441672    6.249702   12.599560

--------------------------------
INTERNAL COORDINATES (ANGSTROEM)
--------------------------------
 Fe     0   0   0     0.000000000000     0.00000000     0.00000000
 O      1   0   0     2.027828555376     0.00000000     0.00000000
 O      1   2   0     2.032753155206   111.97600561     0.00000000
 O      2   1   3     4.116447261900   131.18996146   151.43906754
 O      3   1   2     4.138392495885   133.02647325   192.64819066
 N      1   2   3     2.106802359027    84.93194679   185.08203874
 N      1   2   3     2.100389518637   163.12651282   180.44842615
 C      2   1   3     1.262480514701   133.82467931   161.38609687
 C      8   2   1     1.428944526565   123.03233855     2.43256746
 C      6   1   2     1.298777059391   125.72122576    17.11491322
 H     10   6   1     1.000722638897   117.23025374   169.68495921
 C      6   1   2     1.419434412011   114.06037449   191.72228929
 C     12   6   1     1.397558589112   124.87249435   168.65797887
 H     13  12   6     0.950611776700   119.51763941   359.65871914
 C     13  12   6     1.386948524640   120.82286344   182.70250253
 H     15  13  12     0.957546771704   121.18512487   179.69404713
 C     15  13  12     1.385327372862   119.85153210     1.99607062
 H     17  15  13     0.943918232688   119.84212652   176.40191283
 C     17  15  13     1.380816732952   120.19132335   358.84647255
 H     19  17  15     0.945072954856   119.23115879   176.86441819
 C     19  17  15     1.398375675561   120.78946907   358.88490898
 C      7   1   2     1.303282248786   126.03090733   165.42931862
 H     22   7   1     0.966497832382   117.03346969   190.71632977
 C     22   7   1     1.427077471618   127.93191975    10.63801928
 C      3   1   2     1.267730353821   133.60434250   199.52947289
 C      8   2   1     1.513515355059   115.00466570   179.19511636
 H     26   8   2     0.955712582318   109.26221962   351.29552886
 H     26   8   2     0.949613868896   111.90862169   229.60965481
 H     26   8   2     0.969425443239   112.11121319   113.54366070
 C      4   2   1     1.237961477591    60.57908916    25.63401059
 C     30   4   2     1.514867479353   116.49168712   177.48551200
 H     31  30   4     0.990389388069   109.12505332   232.72297183
 H     31  30   4     0.994545091989   113.75022351   109.85485558
 H     31  30   4     0.947589304499   108.95996633   349.85389724
 C     25   3   1     1.506472213484   115.09418322   159.86319211
 H     35  25   3     0.965488420438   108.40153491   351.84613827
 H     35  25   3     0.974145646195   109.78691376   233.84692441
 H     35  25   3     0.985447340044   112.07547401   115.79203022
 C      5   3   1     1.238412047745    60.24442667   352.99126327
 C     39   5   3     1.518341914721   116.87383644   183.77224338
 H     40  39   5     0.941720414985   107.89259817   349.15100734
 H     40  39   5     0.945102327793   113.87455680   108.77994639
 H     40  39   5     1.007081099018   112.09614983   231.60285227
 O      1   2   3     2.203483743984    89.88072593   274.63964910
 H     44   1   2     0.754829947737   114.82142930   239.08107589
 O      1   2   3     2.205164767087    86.11953778    89.67482537
 H     46   1   2     0.801493792864   112.26944222   301.94440275
 C     46   1   2     1.417973409483   122.23783166   177.91998654
 H     48  46   1     0.944327406147   109.72339881   187.33908815
 H     48  46   1     0.973004763606   111.88130212    61.84916234
 H     48  46   1     0.956248769934   108.88247758   305.90922744
 C     44   1   2     1.391501164211   133.11793403    89.66582286
 H     52  44   1     0.878686371807   111.36687736   333.01375881
 H     52  44   1     0.981523575876   102.86525046    78.30556265
 H     52  44   1     0.927009217861   119.98577791   195.62747739

---------------------------
INTERNAL COORDINATES (A.U.)
---------------------------
 Fe     0   0   0     0.000000000000     0.00000000     0.00000000
 O      1   0   0     3.832040616207     0.00000000     0.00000000
 O      1   2   0     3.841346761204   111.97600561     0.00000000
 O      2   1   3     7.778957969720   131.18996146   151.43906754
 O      3   1   2     7.820428451898   133.02647325   192.64819066
 N      1   2   3     3.981279476859    84.93194679   185.08203874
 N      1   2   3     3.969160964783   163.12651282   180.44842615
 C      2   1   3     2.385742422197   133.82467931   161.38609687
 C      8   2   1     2.700313815774   123.03233855     2.43256746
 C      6   1   2     2.454332951268   125.72122576    17.11491322
 H     10   6   1     1.891091723529   117.23025374   169.68495921
 C      6   1   2     2.682342303764   114.06037449   191.72228929
 C     12   6   1     2.641002989531   124.87249435   168.65797887
 H     13  12   6     1.796395917643   119.51763941   359.65871914
 C     13  12   6     2.620952873415   120.82286344   182.70250253
 H     15  13  12     1.809501158940   121.18512487   179.69404713
 C     15  13  12     2.617889340533   119.85153210     1.99607062
 H     17  15  13     1.783746952594   119.84212652   176.40191283
 C     17  15  13     2.609365466415   120.19132335   358.84647255
 H     19  17  15     1.785929061253   119.23115879   176.86441819
 C     19  17  15     2.642547059147   120.78946907   358.88490898
 C      7   1   2     2.462846525406   126.03090733   165.42931862
 H     22   7   1     1.826416212231   117.03346969   190.71632977
 C     22   7   1     2.696785593247   127.93191975    10.63801928
 C      3   1   2     2.395663180381   133.60434250   199.52947289
 C      8   2   1     2.860129520546   115.00466570   179.19511636
 H     26   8   2     1.806035043323   109.26221962   351.29552886
 H     26   8   2     1.794510145187   111.90862169   229.60965481
 H     26   8   2     1.831948594978   112.11121319   113.54366070
 C      4   2   1     2.339408156992    60.57908916    25.63401059
 C     30   4   2     2.862684665160   116.49168712   177.48551200
 H     31  30   4     1.871564709393   109.12505332   232.72297183
 H     31  30   4     1.879417851695   113.75022351   109.85485558
 H     31  30   4     1.790684272935   108.95996633   349.85389724
 C     25   3   1     2.846819911847   115.09418322   159.86319211
 H     35  25   3     1.824508700100   108.40153491   351.84613827
 H     35  25   3     1.840868485860   109.78691376   233.84692441
 H     35  25   3     1.862225592085   112.07547401   115.79203022
 C      5   3   1     2.340259611187    60.24442667   352.99126327
 C     39   5   3     2.869250396477   116.87383644   183.77224338
 H     40  39   5     1.779593679045   107.89259817   349.15100734
 H     40  39   5     1.785984568060   113.87455680   108.77994639
 H     40  39   5     1.903107471793   112.09614983   231.60285227
 O      1   2   3     4.163980816676    89.88072593   274.63964910
 H     44   1   2     1.426421878904   114.82142930   239.08107589
 O      1   2   3     4.167157489966    86.11953778    89.67482537
 H     46   1   2     1.514603766551   112.26944222   301.94440275
 C     46   1   2     2.679581409105   122.23783166   177.91998654
 H     48  46   1     1.784520178374   109.72339881   187.33908815
 H     48  46   1     1.838712530216   111.88130212    61.84916234
 H     48  46   1     1.807048291074   108.88247758   305.90922744
 C     44   1   2     2.629556115391   133.11793403    89.66582286
 H     52  44   1     1.660476600325   111.36687736   333.01375881
 H     52  44   1     1.854810752392   102.86525046    78.30556265
 H     52  44   1     1.751793545379   119.98577791   195.62747739

---------------------
BASIS SET INFORMATION
---------------------
There are 5 groups of distinct atoms

 Group   1 Type Fe  : 17s11p7d1f contracted to 6s4p4d1f pattern {842111/6311/4111/1}
 Group   2 Type O   : 11s6p2d1f contracted to 5s3p2d1f pattern {62111/411/11/1}
 Group   3 Type N   : 11s6p2d1f contracted to 5s3p2d1f pattern {62111/411/11/1}
 Group   4 Type C   : 11s6p2d1f contracted to 5s3p2d1f pattern {62111/411/11/1}
 Group   5 Type H   : 5s1p contracted to 3s1p pattern {311/1}

Atom   0Fe   basis set group =>   1
Atom   1O    basis set group =>   2
Atom   2O    basis set group =>   2
Atom   3O    basis set group =>   2
Atom   4O    basis set group =>   2
Atom   5N    basis set group =>   3
Atom   6N    basis set group =>   3
Atom   7C    basis set group =>   4
Atom   8C    basis set group =>   4
Atom   9C    basis set group =>   4
Atom  10H    basis set group =>   5
Atom  11C    basis set group =>   4
Atom  12C    basis set group =>   4
Atom  13H    basis set group =>   5
Atom  14C    basis set group =>   4
Atom  15H    basis set group =>   5
Atom  16C    basis set group =>   4
Atom  17H    basis set group =>   5
Atom  18C    basis set group =>   4
Atom  19H    basis set group =>   5
Atom  20C    basis set group =>   4
Atom  21C    basis set group =>   4
Atom  22H    basis set group =>   5
Atom  23C    basis set group =>   4
Atom  24C    basis set group =>   4
Atom  25C    basis set group =>   4
Atom  26H    basis set group =>   5
Atom  27H    basis set group =>   5
Atom  28H    basis set group =>   5
Atom  29C    basis set group =>   4
Atom  30C    basis set group =>   4
Atom  31H    basis set group =>   5
Atom  32H    basis set group =>   5
Atom  33H    basis set group =>   5
Atom  34C    basis set group =>   4
Atom  35H    basis set group =>   5
Atom  36H    basis set group =>   5
Atom  37H    basis set group =>   5
Atom  38C    basis set group =>   4
Atom  39C    basis set group =>   4
Atom  40H    basis set group =>   5
Atom  41H    basis set group =>   5
Atom  42H    basis set group =>   5
Atom  43O    basis set group =>   2
Atom  44H    basis set group =>   5
Atom  45O    basis set group =>   2
Atom  46H    basis set group =>   5
Atom  47C    basis set group =>   4
Atom  48H    basis set group =>   5
Atom  49H    basis set group =>   5
Atom  50H    basis set group =>   5
Atom  51C    basis set group =>   4
Atom  52H    basis set group =>   5
Atom  53H    basis set group =>   5
Atom  54H    basis set group =>   5
---------------------------------
AUXILIARY/J BASIS SET INFORMATION
---------------------------------
There are 5 groups of distinct atoms

 Group   1 Type Fe  : 19s5p5d3f3g contracted to 8s5p5d2f3g pattern {121111111/11111/11111/21/111}
 Group   2 Type O   : 12s5p4d2f1g contracted to 6s4p3d1f1g pattern {711111/2111/211/2/1}
 Group   3 Type N   : 12s5p4d2f1g contracted to 6s4p3d1f1g pattern {711111/2111/211/2/1}
 Group   4 Type C   : 12s5p4d2f1g contracted to 6s4p3d1f1g pattern {711111/2111/211/2/1}
 Group   5 Type H   : 5s2p1d contracted to 3s1p1d pattern {311/2/1}

Atom   0Fe   basis set group =>   1
Atom   1O    basis set group =>   2
Atom   2O    basis set group =>   2
Atom   3O    basis set group =>   2
Atom   4O    basis set group =>   2
Atom   5N    basis set group =>   3
Atom   6N    basis set group =>   3
Atom   7C    basis set group =>   4
Atom   8C    basis set group =>   4
Atom   9C    basis set group =>   4
Atom  10H    basis set group =>   5
Atom  11C    basis set group =>   4
Atom  12C    basis set group =>   4
Atom  13H    basis set group =>   5
Atom  14C    basis set group =>   4
Atom  15H    basis set group =>   5
Atom  16C    basis set group =>   4
Atom  17H    basis set group =>   5
Atom  18C    basis set group =>   4
Atom  19H    basis set group =>   5
Atom  20C    basis set group =>   4
Atom  21C    basis set group =>   4
Atom  22H    basis set group =>   5
Atom  23C    basis set group =>   4
Atom  24C    basis set group =>   4
Atom  25C    basis set group =>   4
Atom  26H    basis set group =>   5
Atom  27H    basis set group =>   5
Atom  28H    basis set group =>   5
Atom  29C    basis set group =>   4
Atom  30C    basis set group =>   4
Atom  31H    basis set group =>   5
Atom  32H    basis set group =>   5
Atom  33H    basis set group =>   5
Atom  34C    basis set group =>   4
Atom  35H    basis set group =>   5
Atom  36H    basis set group =>   5
Atom  37H    basis set group =>   5
Atom  38C    basis set group =>   4
Atom  39C    basis set group =>   4
Atom  40H    basis set group =>   5
Atom  41H    basis set group =>   5
Atom  42H    basis set group =>   5
Atom  43O    basis set group =>   2
Atom  44H    basis set group =>   5
Atom  45O    basis set group =>   2
Atom  46H    basis set group =>   5
Atom  47C    basis set group =>   4
Atom  48H    basis set group =>   5
Atom  49H    basis set group =>   5
Atom  50H    basis set group =>   5
Atom  51C    basis set group =>   4
Atom  52H    basis set group =>   5
Atom  53H    basis set group =>   5
Atom  54H    basis set group =>   5


           ************************************************************
           *        Program running with 16 parallel MPI-processes    *
           *              working on a common directory               *
           ************************************************************
------------------------------------------------------------------------------
                             ORCA STARTUP CALCULATIONS
                           -- RI-GTO INTEGRALS CHOSEN --
------------------------------------------------------------------------------
------------------------------------------------------------------------------
                   ___                                                        
                  /   \      - P O W E R E D   B Y -                         
                 /     \                                                     
                 |  |  |   _    _      __       _____    __    __             
                 |  |  |  | |  | |    /  \     |  _  \  |  |  /  |          
                  \  \/   | |  | |   /    \    | | | |  |  | /  /          
                 / \  \   | |__| |  /  /\  \   | |_| |  |  |/  /          
                |  |  |   |  __  | /  /__\  \  |    /   |      \           
                |  |  |   | |  | | |   __   |  |    \   |  |\   \          
                \     /   | |  | | |  |  |  |  | |\  \  |  | \   \       
                 \___/    |_|  |_| |__|  |__|  |_| \__\ |__|  \__/        
                                                                              
                      - O R C A' S   B I G   F R I E N D -                    
                                      &                                       
                       - I N T E G R A L  F E E D E R -                       
                                                                              
 v1 FN, 2020, v2 2021, v3 2022-2024                                           
------------------------------------------------------------------------------


----------------------
SHARK INTEGRAL PACKAGE
----------------------

Number of atoms                             ...     55
Number of basis functions                   ...   1069
Number of shells                            ...    427
Maximum angular momentum                    ...      3
Integral batch strategy                     ... SHARK/LIBINT Hybrid
RI-J (if used) integral strategy            ... SPLIT-RIJ (Revised 2003 algorithm where possible)
Printlevel                                  ...      1
Contraction scheme used                     ... SEGMENTED contraction
Prescreening option                         ... SCHWARTZ
   Thresh                                   ... 2.500e-11
   Tcut                                     ... 2.500e-12
   Tpresel                                  ... 2.500e-12 
Coulomb Range Separation                    ... NOT USED
Exchange Range Separation                   ... NOT USED
Multipole approximations                    ... NOT USED
Finite Nucleus Model                        ... NOT USED
CABS basis                                  ... NOT available
Auxiliary Coulomb fitting basis             ... AVAILABLE
   # of basis functions in Aux-J            ...   1747
   # of shells in Aux-J                     ...    573
   Maximum angular momentum in Aux-J        ...      4
Auxiliary J/K fitting basis                 ... NOT available
Auxiliary Correlation fitting basis         ... NOT available
Auxiliary 'external' fitting basis          ... NOT available

Checking pre-screening integrals            ... done (  0.0 sec) Dimension = 427
Check shell pair data                       ... done (  0.0 sec)
Shell pair information
Shell pair cut-off parameter TPreSel        ...   2.5e-12
Total number of shell pairs                 ...     91378
Shell pairs after pre-screening             ...     58716
Total number of primitive shell pairs       ...    283881
Primitive shell pairs kept                  ...    116305
          la=0 lb=0:  15774 shell pairs
          la=1 lb=0:  17119 shell pairs
          la=1 lb=1:   4689 shell pairs
          la=2 lb=0:   8393 shell pairs
          la=2 lb=1:   4632 shell pairs
          la=2 lb=2:   1168 shell pairs
          la=3 lb=0:   3636 shell pairs
          la=3 lb=1:   2070 shell pairs
          la=3 lb=2:   1007 shell pairs
          la=3 lb=3:    228 shell pairs

Calculating one electron integrals          ... done (  0.1 sec)
done (  0.2 sec)
Calculating Nuclear repulsion               ... done (  0.0 sec) ENN=   3593.271077766038 Eh

Diagonalization of the overlap matrix:
Smallest eigenvalue                        ... 4.085e-06
Time for diagonalization                   ...    0.150 sec
Threshold for overlap eigenvalues          ... 1.000e-07
Number of eigenvalues below threshold      ... 0
Time for construction of square roots      ...    0.250 sec
Total time needed                          ...    0.427 sec

-------------------
DFT GRID GENERATION
-------------------

General Integration Accuracy     IntAcc      ... 4.959
Radial Grid Type                 RadialGrid  ... OptM3 with GC (2021)
Angular Grid (max. ang.)         AngularGrid ... 6 (Lebedev-590)
Angular grid pruning method      GridPruning ... 4 (adaptive)
Weight generation scheme         WeightScheme... mBecke (2022)
Basis function cutoff            BFCut       ... 1.0000e-11
Integration weight cutoff        WCut        ... 1.0000e-14
Partially contracted basis set               ... off
Rotationally invariant grid construction     ... off
Angular grids for H and He will be reduced by one unit
Core-polarized basis detected: some atoms will have their core
                               angular grid increased.

Total number of grid points                  ...   643384
Total number of batches                      ...    10078
Average number of points per batch           ...       63
Average number of grid points per atom       ...    11698

--------------------
COSX GRID GENERATION
--------------------

GRIDX 1
-------
General Integration Accuracy     IntAcc      ... 4.020
Radial Grid Type                 RadialGrid  ... OptM3 with GC (2021)
Angular Grid (max. ang.)         AngularGrid ... 2 (Lebedev-110)
Angular grid pruning method      GridPruning ... 4 (adaptive)
Weight generation scheme         WeightScheme... mBecke (2022)
Basis function cutoff            BFCut       ... 1.0000e-11
Integration weight cutoff        WCut        ... 1.0000e-14
Partially contracted basis set               ... on
Rotationally invariant grid construction     ... off
Angular grids for H and He will be reduced by one unit
Core-polarized basis detected: some atoms will have their core
                               angular grid increased.

Total number of grid points                  ...    72860
Total number of batches                      ...      593
Average number of points per batch           ...      122
Average number of grid points per atom       ...     1325
UseSFitting                                  ... on

GRIDX 2
-------
General Integration Accuracy     IntAcc      ... 4.338
Radial Grid Type                 RadialGrid  ... OptM3 with GC (2021)
Angular Grid (max. ang.)         AngularGrid ... 3 (Lebedev-194)
Angular grid pruning method      GridPruning ... 4 (adaptive)
Weight generation scheme         WeightScheme... mBecke (2022)
Basis function cutoff            BFCut       ... 1.0000e-11
Integration weight cutoff        WCut        ... 1.0000e-14
Partially contracted basis set               ... on
Rotationally invariant grid construction     ... off
Angular grids for H and He will be reduced by one unit
Core-polarized basis detected: some atoms will have their core
                               angular grid increased.

Total number of grid points                  ...   152805
Total number of batches                      ...     1225
Average number of points per batch           ...      124
Average number of grid points per atom       ...     2778
UseSFitting                                  ... on

GRIDX 3
-------
General Integration Accuracy     IntAcc      ... 4.871
Radial Grid Type                 RadialGrid  ... OptM3 with GC (2021)
Angular Grid (max. ang.)         AngularGrid ... 4 (Lebedev-302)
Angular grid pruning method      GridPruning ... 4 (adaptive)
Weight generation scheme         WeightScheme... mBecke (2022)
Basis function cutoff            BFCut       ... 1.0000e-11
Integration weight cutoff        WCut        ... 1.0000e-14
Partially contracted basis set               ... on
Rotationally invariant grid construction     ... off
Angular grids for H and He will be reduced by one unit
Core-polarized basis detected: some atoms will have their core
                               angular grid increased.

Total number of grid points                  ...   288188
Total number of batches                      ...     2280
Average number of points per batch           ...      126
Average number of grid points per atom       ...     5240
UseSFitting                                  ... on
Initializing property integral containers    ... done (  0.0 sec)

SHARK setup successfully completed in  11.1 seconds

Maximum memory used throughout the entire STARTUP-calculation: 204.3 MB


           ************************************************************
           *        Program running with 16 parallel MPI-processes    *
           *              working on a common directory               *
           ************************************************************
-------------------------------------------------------------------------------
                                 ORCA GUESS
                   Start orbitals & Density for SCF / CASSCF
-------------------------------------------------------------------------------

------------
SCF SETTINGS
------------
Hamiltonian:
 Density Functional     Method          .... DFT(GTOs)
 Exchange Functional    Exchange        .... PBE
   PBE kappa parameter   XKappa         ....  0.804000
   PBE mue parameter    XMuePBE         ....  0.219520
 Correlation Functional Correlation     .... PBE
   PBE beta parameter  CBetaPBE         ....  0.066725
 LDA part of GGA corr.  LDAOpt          .... PW91-LDA
 Gradients option       PostSCFGGA      .... off
 Hybrid DFT is turned on
   Fraction HF Exchange ScalHFX         ....  0.250000
   Scaling of DF-GGA-X  ScalDFX         ....  0.750000
   Scaling of DF-GGA-C  ScalDFC         ....  1.000000
   Scaling of DF-LDA-C  ScalLDAC        ....  1.000000
   Perturbative correction              ....  0.000000
   NL short-range parameter             ....  6.900000
 RI-approximation to the Coulomb term is turned on
   Number of AuxJ basis functions       .... 1747
   RIJ-COSX (HFX calculated with COS-X)).... on


General Settings:
 Integral files         IntName         .... QOPBIH-S5
 Hartree-Fock type      HFTyp           .... RHF
 Total Charge           Charge          ....    0
 Multiplicity           Mult            ....    1
 Number of Electrons    NEL             ....  234
 Basis Dimension        Dim             .... 1069
 Nuclear Repulsion      ENuc            ....   3593.2710777660 Eh

Convergence Acceleration:
 AO-DIIS                CNVDIIS         .... on
   Start iteration      DIISMaxIt       ....    12
   Startup error        DIISStart       ....  0.200000
   # of expansion vecs  DIISMaxEq       ....     5
   Bias factor          DIISBfac        ....   1.050
   Max. coefficient     DIISMaxC        ....  10.000
 MO-DIIS                CNVKDIIS        .... off
 Trust-Rad. Augm. Hess. CNVTRAH         .... auto
   Auto Start mean grad. ratio tolernc. ....  1.125000
   Auto Start start iteration           ....    50
   Auto Start num. interpolation iter.  ....    10
   Max. Number of Micro iterations      ....    24
   Max. Number of Macro iterations      .... Maxiter - #DIIS iter
   Number of Davidson start vectors     ....     2
   Converg. threshold    (grad. norm)   ....   1.000e-05
   Grad. Scal. Fac. for Micro threshold ....   0.100
   Minimum threshold for Micro iter.    ....   1.000e-02
   NR start threshold (gradient norm)   ....   1.000e-04
   Initial trust radius                 ....   0.400
   Minimum AH scaling param. (alpha)    ....   1.000
   Maximum AH scaling param. (alpha)    .... 1000.000
   Quad. conv. algorithm                .... NR
   White noise on init. David. guess    .... on
   Maximum white noise                  ....   0.010
   Pseudo random numbers                .... off
   Inactive MOs                         .... canonical
   Orbital update algorithm             .... Taylor
   Preconditioner                       .... Diag
   Full preconditioner red. dimension   ....   250
 SOSCF                  CNVSOSCF        .... on
   Start iteration      SOSCFMaxIt      ....   150
   Startup grad/error   SOSCFStart      ....  0.003300
   Hessian update       SOSCFHessUp     .... L-BFGS
 Level Shifting         CNVShift        .... on
   Level shift para.    LevelShift      ....    0.2500
   Turn off err/grad.   ShiftErr        ....    0.0010
 Zerner damping         CNVZerner       .... off
 Static damping         CNVDamp         .... on
   Fraction old density DampFac         ....    0.7000
   Max. Damping (<1)    DampMax         ....    0.9800
   Min. Damping (>=0)   DampMin         ....    0.0000
   Turn off err/grad.   DampErr         ....    0.1000

SCF Procedure:
 Maximum # iterations   MaxIter         ....   125
 SCF integral mode      SCFMode         .... Direct
   Integral package                     .... SHARK and LIBINT hybrid scheme
 Reset frequency        DirectResetFreq ....    20
 Integral Threshold     Thresh          ....  2.500e-11 Eh
 Primitive CutOff       TCut            ....  2.500e-12 Eh

Convergence Tolerance:
 Convergence Check Mode ConvCheckMode   .... Total+1el-Energy
 Convergence forced     ConvForced      .... 0
 Energy Change          TolE            ....  1.000e-08 Eh
 1-El. energy change                    ....  1.000e-05 Eh
 Orbital Gradient       TolG            ....  1.000e-05
 Orbital Rotation angle TolX            ....  1.000e-05
 DIIS Error             TolErr          ....  5.000e-07

------------------------------
INITIAL GUESS: MODEL POTENTIAL
------------------------------
Loading Hartree-Fock densities                     ... done
Calculating cut-offs                               ... done
Initializing the effective Hamiltonian             ... done
Setting up the integral package (SHARK)            ... done
done (   0.4 sec)
Making the grid                                    ... done (   0.4 sec)
Mapping shells                                     ... done
Starting the XC term evaluation                    ... done (   0.3 sec)
  promolecular density results
     # of electrons  =    233.992523484
     EX              =   -226.824130939
     EC              =     -8.200938902
     EX+EC           =   -235.025069841
done (   0.1 sec)
done (   0.2 sec)
Back transforming the eigenvectors                 ... done (   0.1 sec)
done
                      ------------------
                      INITIAL GUESS DONE (   1.6 sec)
                      ------------------
             **** ENERGY FILE WAS UPDATED (QOPBIH-S5.en.tmp) ****
Finished Guess after   2.3 sec
Maximum memory used throughout the entire GUESS-calculation: 107.9 MB


           ************************************************************
           *        Program running with 16 parallel MPI-processes    *
           *              working on a common directory               *
           ************************************************************

-------------------------------------------------------------------------------------------
                                      ORCA LEAN-SCF
                              memory conserving SCF solver
-------------------------------------------------------------------------------------------

----------------------------------------D-I-I-S--------------------------------------------
Iteration    Energy (Eh)           Delta-E    RMSDP     MaxDP     DIISErr   Damp  Time(sec)
-------------------------------------------------------------------------------------------
               ***  Starting incremental Fock matrix formation  ***
    1    -2599.6498509166513031     0.00e+00  1.35e-03  1.81e-01  2.63e-01  0.700  22.0
    2    -2600.1146826262956893    -4.65e-01  1.13e-03  1.45e-01  1.20e-01  0.700  11.4
                               ***Turning on AO-DIIS***
    3    -2600.3052216967716959    -1.91e-01  4.32e-04  3.14e-02  5.55e-02  0.700  10.6
    4    -2600.4242910948505596    -1.19e-01  7.30e-04  7.07e-02  2.81e-02  0.000  10.0
    5    -2600.6828592863312224    -2.59e-01  2.11e-04  2.27e-02  1.25e-02  0.000  10.4
    6    -2600.6843024740228429    -1.44e-03  1.08e-04  9.73e-03  2.60e-02  0.000   9.2
    7    -2600.6852370916185464    -9.35e-04  4.47e-05  5.32e-03  8.41e-03  0.000   8.5
                              *** Initializing SOSCF ***
---------------------------------------S-O-S-C-F--------------------------------------
Iteration    Energy (Eh)           Delta-E    RMSDP     MaxDP     MaxGrad    Time(sec)
--------------------------------------------------------------------------------------
    8    -2600.6854773221730284    -2.40e-04  2.56e-05  2.37e-03  2.06e-03     8.9
               *** Restarting incremental Fock matrix formation ***
    9    -2600.6855784157769449    -1.01e-04  3.56e-05  3.76e-03  1.42e-03    22.1
   10    -2600.6856643967521450    -8.60e-05  3.63e-05  4.64e-03  7.67e-04    13.8
   11    -2600.6856838165895169    -1.94e-05  1.75e-05  1.47e-03  5.37e-04    13.6
   12    -2600.6856912758539693    -7.46e-06  1.04e-05  1.07e-03  2.95e-04    13.2
   13    -2600.6856973634257884    -6.09e-06  6.13e-06  4.50e-04  6.96e-05    11.7
   14    -2600.6856973972408014    -3.38e-08  3.45e-06  3.07e-04  9.32e-05    10.5
   15    -2600.6856981834507678    -7.86e-07  5.11e-06  5.37e-04  3.01e-05    10.3
   16    -2600.6856981911014373    -7.65e-09  3.05e-06  3.24e-04  3.10e-05     9.8
                 **** Energy Check signals convergence ****

               *****************************************************
               *                     SUCCESS                       *
               *           SCF CONVERGED AFTER  16 CYCLES          *
               *****************************************************

 done (   32.767 sec)
Old exchange energy                            :    -57.843069847 Eh
New exchange energy                            :    -57.843058784 Eh
Exchange energy change after final integration :      0.000011063 Eh
Total energy after final integration           :  -2600.685687128 Eh
             **** ENERGY FILE WAS UPDATED (QOPBIH-S5.en.tmp) ****

----------------
TOTAL SCF ENERGY
----------------

Total Energy       :      -2600.68568712812794 Eh          -70768.25534 eV

Components:
Nuclear Repulsion  :       3593.27107776603771 Eh           97777.87696 eV
Electronic Energy  :      -6193.95677595713914 Eh         -168546.13259 eV
One Electron Energy:     -10725.78077271061920 Eh         -291863.33287 eV
Two Electron Energy:       4531.82399675348006 Eh          123317.20028 eV

Virial components:
Potential Energy   :      -5199.56973256275342 Eh         -141487.48551 eV
Kinetic Energy     :       2598.88404543462548 Eh           70719.23017 eV
Virial Ratio       :          2.00069323665928

DFT components:
N(Alpha)           :      116.999988599530 electrons
N(Beta)            :      116.999988599530 electrons
N(Total)           :      233.999977199060 electrons
E(X)               :     -173.158733921049 Eh       
E(C)               :       -8.188750605676 Eh       
E(XC)              :     -181.347484526725 Eh       

---------------
SCF CONVERGENCE
---------------

  Last Energy change         ...    7.6507e-09  Tolerance :   1.0000e-08
  Last MAX-Density change    ...    3.2378e-04  Tolerance :   1.0000e-07
  Last RMS-Density change    ...    3.0485e-06  Tolerance :   5.0000e-09
  Last DIIS Error            ...    2.0576e-03  Tolerance :   5.0000e-07
  Last Orbital Gradient      ...    3.1025e-05  Tolerance :   1.0000e-05
  Last Orbital Rotation      ...    8.1782e-05  Tolerance :   1.0000e-05


----------------
ORBITAL ENERGIES
----------------

  NO   OCC          E(Eh)            E(eV) 
   0   2.0000    -256.348106     -6975.5866 
   1   2.0000     -30.107601      -819.2695 
   2   2.0000     -25.935962      -705.7534 
   3   2.0000     -25.935189      -705.7324 
   4   2.0000     -25.930982      -705.6179 
   5   2.0000     -19.239628      -523.5369 
   6   2.0000     -19.231437      -523.3140 
   7   2.0000     -19.201246      -522.4925 
   8   2.0000     -19.196128      -522.3532 
   9   2.0000     -19.163846      -521.4748 
  10   2.0000     -19.156658      -521.2792 
  11   2.0000     -14.406897      -392.0316 
  12   2.0000     -14.401650      -391.8888 
  13   2.0000     -10.311481      -280.5897 
  14   2.0000     -10.304011      -280.3864 
  15   2.0000     -10.296286      -280.1762 
  16   2.0000     -10.288090      -279.9532 
  17   2.0000     -10.270102      -279.4637 
  18   2.0000     -10.269542      -279.4484 
  19   2.0000     -10.268963      -279.4327 
  20   2.0000     -10.267305      -279.3876 
  21   2.0000     -10.238724      -278.6099 
  22   2.0000     -10.228159      -278.3223 
  23   2.0000     -10.221569      -278.1430 
  24   2.0000     -10.221335      -278.1367 
  25   2.0000     -10.220651      -278.1181 
  26   2.0000     -10.218633      -278.0631 
  27   2.0000     -10.215790      -277.9858 
  28   2.0000     -10.212468      -277.8954 
  29   2.0000     -10.175779      -276.8970 
  30   2.0000     -10.174144      -276.8525 
  31   2.0000     -10.170385      -276.7503 
  32   2.0000     -10.156986      -276.3856 
  33   2.0000      -3.462449       -94.2180 
  34   2.0000      -2.222739       -60.4838 
  35   2.0000      -2.219195       -60.3874 
  36   2.0000      -2.212072       -60.1935 
  37   2.0000      -1.157501       -31.4972 
  38   2.0000      -1.137945       -30.9651 
  39   2.0000      -1.060937       -28.8696 
  40   2.0000      -1.056058       -28.7368 
  41   2.0000      -1.038049       -28.2467 
  42   2.0000      -1.031668       -28.0731 
  43   2.0000      -0.986492       -26.8438 
  44   2.0000      -0.960236       -26.1293 
  45   2.0000      -0.885525       -24.0964 
  46   2.0000      -0.826277       -22.4841 
  47   2.0000      -0.817219       -22.2377 
  48   2.0000      -0.799016       -21.7423 
  49   2.0000      -0.787696       -21.4343 
  50   2.0000      -0.787082       -21.4176 
  51   2.0000      -0.782507       -21.2931 
  52   2.0000      -0.780595       -21.2411 
  53   2.0000      -0.779823       -21.2201 
  54   2.0000      -0.752490       -20.4763 
  55   2.0000      -0.741388       -20.1742 
  56   2.0000      -0.689781       -18.7699 
  57   2.0000      -0.663947       -18.0669 
  58   2.0000      -0.634117       -17.2552 
  59   2.0000      -0.626927       -17.0596 
  60   2.0000      -0.607953       -16.5432 
  61   2.0000      -0.605066       -16.4647 
  62   2.0000      -0.594684       -16.1822 
  63   2.0000      -0.590148       -16.0588 
[...]
140:   3052.12   0.000731    3.70  0.000075  ( 0.005915 -0.002925  0.005589)
141:   3052.15   0.000824    4.16  0.000084  ( 0.004239 -0.006803  0.004469)
142:   3055.64   0.009067   45.82  0.000926  (-0.008682 -0.009193  0.027678)
143:   3069.69   0.001359    6.87  0.000138  ( 0.007076 -0.007750  0.005293)
144:   3070.20   0.001272    6.43  0.000129  (-0.008218  0.005747 -0.005358)
145:   3120.58   0.001656    8.37  0.000166  ( 0.006598 -0.003535 -0.010469)
146:   3121.01   0.001579    7.98  0.000158  (-0.008052  0.000938  0.009598)
147:   3124.43   0.003923   19.82  0.000392  (-0.014875 -0.006471  0.011343)
148:   3129.33   0.003397   17.17  0.000339  ( 0.003194 -0.015421 -0.009525)
149:   3141.16   0.000569    2.87  0.000056  ( 0.004691 -0.004501 -0.003772)
150:   3142.10   0.000546    2.76  0.000054  (-0.006633  0.002001  0.002494)
151:   3165.36   0.002280   11.52  0.000225  (-0.007335  0.010638 -0.007605)
152:   3167.17   0.000939    4.75  0.000093  ( 0.006096 -0.004069  0.006230)
153:   3167.53   0.002768   13.99  0.000273  ( 0.011616 -0.009457  0.006954)
154:   3167.81   0.003587   18.13  0.000353  (-0.008321 -0.016198 -0.004662)
155:   3168.25   0.002580   13.04  0.000254  ( 0.011445  0.010514  0.003543)
156:   3177.46   0.000954    4.82  0.000094  ( 0.004736 -0.006940  0.004801)
157:   3181.06   0.001196    6.05  0.000117  (-0.006388  0.006322 -0.006048)
158:   3187.38   0.000436    2.20  0.000043  (-0.006113 -0.001824 -0.001397)
159:   3192.30   0.000169    0.85  0.000017  ( 0.002130  0.003348  0.000877)
160:   3202.86   0.000668    3.38  0.000065  ( 0.002436 -0.006265  0.004463)
161:   3212.49   0.003002   15.17  0.000292  ( 0.010695  0.011776  0.006209)
162:   3219.69   0.002631   13.30  0.000255  (-0.006985  0.010569 -0.009722)
163:   3817.59   0.010662   53.88  0.000872  (-0.021398  0.000511 -0.020333)
164:   3842.23   0.006732   34.02  0.000547  (-0.018809 -0.001805 -0.013775)

* The epsilon (eps) is given for a Dirac delta lineshape.
** The dipole moment derivative (T) already includes vibrational overlap.

The first frequency considered to be a vibration is 6
The total number of vibrations considered is 159


--------------------------
THERMOCHEMISTRY AT 298.15K
--------------------------

Temperature         ...   298.15 K
Pressure            ...     1.00 atm
Total Mass          ...   446.29 AMU
Quasi RRHO          ...     True
Cut-Off Frequency   ...     1.00 cm^-1

Throughout the following assumptions are being made:
  (1) The electronic state is orbitally nondegenerate
  (2) There are no thermally accessible electronically excited states
  (3) Hindered rotations indicated by low frequency modes are not
      treated as such but are treated as vibrations and this may
      cause some error
  (4) All equations used are the standard statistical mechanics
      equations for an ideal gas
  (5) All vibrations are strictly harmonic

freq.      14.10  E(vib)   ...       0.57 
freq.      30.44  E(vib)   ...       0.55 
freq.      35.61  E(vib)   ...       0.54 
freq.      36.89  E(vib)   ...       0.54 
freq.      39.89  E(vib)   ...       0.54 
freq.      41.59  E(vib)   ...       0.54 
freq.      61.92  E(vib)   ...       0.51 
freq.      68.14  E(vib)   ...       0.50 
freq.      72.16  E(vib)   ...       0.50 
freq.      87.38  E(vib)   ...       0.48 
freq.      94.79  E(vib)   ...       0.47 
freq.     102.94  E(vib)   ...       0.46 
freq.     120.69  E(vib)   ...       0.44 
freq.     139.77  E(vib)   ...       0.41 
freq.     148.10  E(vib)   ...       0.41 
freq.     156.06  E(vib)   ...       0.40 
freq.     160.08  E(vib)   ...       0.39 
freq.     172.40  E(vib)   ...       0.38 
freq.     179.43  E(vib)   ...       0.37 
freq.     189.85  E(vib)   ...       0.36 
freq.     198.20  E(vib)   ...       0.35 
freq.     201.52  E(vib)   ...       0.35 
freq.     210.89  E(vib)   ...       0.34 
freq.     215.14  E(vib)   ...       0.34 
freq.     218.46  E(vib)   ...       0.33 
freq.     222.53  E(vib)   ...       0.33 
freq.     244.39  E(vib)   ...       0.31 
freq.     252.43  E(vib)   ...       0.30 
freq.     275.99  E(vib)   ...       0.28 
freq.     287.57  E(vib)   ...       0.27 
freq.     305.32  E(vib)   ...       0.26 
freq.     314.15  E(vib)   ...       0.25 
freq.     320.49  E(vib)   ...       0.25 
freq.     332.93  E(vib)   ...       0.24 
freq.     347.17  E(vib)   ...       0.23 
freq.     353.60  E(vib)   ...       0.22 
freq.     363.57  E(vib)   ...       0.22 
freq.     377.59  E(vib)   ...       0.21 
freq.     378.85  E(vib)   ...       0.21 
freq.     412.80  E(vib)   ...       0.19 
freq.     418.21  E(vib)   ...       0.18 
freq.     419.53  E(vib)   ...       0.18 
freq.     435.32  E(vib)   ...       0.17 
freq.     438.52  E(vib)   ...       0.17 
freq.     447.38  E(vib)   ...       0.17 
freq.     506.17  E(vib)   ...       0.14 
freq.     524.62  E(vib)   ...       0.13 
freq.     566.20  E(vib)   ...       0.11 
freq.     574.43  E(vib)   ...       0.11 
freq.     578.79  E(vib)   ...       0.11 
freq.     586.11  E(vib)   ...       0.11 
freq.     590.75  E(vib)   ...       0.10 
freq.     591.81  E(vib)   ...       0.10 
freq.     592.92  E(vib)   ...       0.10 
freq.     608.35  E(vib)   ...       0.10 
freq.     642.02  E(vib)   ...       0.09 
freq.     651.26  E(vib)   ...       0.08 
freq.     670.32  E(vib)   ...       0.08 
freq.     675.81  E(vib)   ...       0.08 
freq.     684.43  E(vib)   ...       0.07 
freq.     685.04  E(vib)   ...       0.07 
freq.     757.02  E(vib)   ...       0.06 
freq.     764.07  E(vib)   ...       0.06 
freq.     771.04  E(vib)   ...       0.05 
freq.     800.93  E(vib)   ...       0.05 
freq.     857.76  E(vib)   ...       0.04 
freq.     889.85  E(vib)   ...       0.04 
freq.     895.85  E(vib)   ...       0.03 
freq.     925.29  E(vib)   ...       0.03 
freq.     942.80  E(vib)   ...       0.03 
freq.     949.43  E(vib)   ...       0.03 
freq.     951.73  E(vib)   ...       0.03 
freq.     967.05  E(vib)   ...       0.03 
freq.     969.56  E(vib)   ...       0.03 
freq.    1003.20  E(vib)   ...       0.02 
freq.    1005.11  E(vib)   ...       0.02 
freq.    1034.10  E(vib)   ...       0.02 
freq.    1034.47  E(vib)   ...       0.02 
freq.    1044.32  E(vib)   ...       0.02 
freq.    1045.32  E(vib)   ...       0.02 
freq.    1063.90  E(vib)   ...       0.02 
freq.    1069.98  E(vib)   ...       0.02 
freq.    1070.78  E(vib)   ...       0.02 
freq.    1074.67  E(vib)   ...       0.02 
freq.    1083.25  E(vib)   ...       0.02 
freq.    1090.96  E(vib)   ...       0.02 
freq.    1093.22  E(vib)   ...       0.02 
freq.    1140.31  E(vib)   ...       0.01 
freq.    1180.92  E(vib)   ...       0.01 
freq.    1181.35  E(vib)   ...       0.01 
freq.    1183.40  E(vib)   ...       0.01 
freq.    1203.99  E(vib)   ...       0.01 
freq.    1224.98  E(vib)   ...       0.01 
freq.    1240.47  E(vib)   ...       0.01 
freq.    1255.20  E(vib)   ...       0.01 
freq.    1306.54  E(vib)   ...       0.01 
freq.    1331.28  E(vib)   ...       0.01 
freq.    1335.74  E(vib)   ...       0.01 
freq.    1357.12  E(vib)   ...       0.01 
freq.    1362.25  E(vib)   ...       0.01 
freq.    1364.95  E(vib)   ...       0.01 
freq.    1367.40  E(vib)   ...       0.01 
freq.    1369.67  E(vib)   ...       0.01 
freq.    1386.60  E(vib)   ...       0.00 
freq.    1387.57  E(vib)   ...       0.00 
freq.    1422.13  E(vib)   ...       0.00 
freq.    1428.30  E(vib)   ...       0.00 
freq.    1429.79  E(vib)   ...       0.00 
freq.    1435.36  E(vib)   ...       0.00 
freq.    1444.37  E(vib)   ...       0.00 
freq.    1451.53  E(vib)   ...       0.00 
freq.    1455.90  E(vib)   ...       0.00 
freq.    1456.73  E(vib)   ...       0.00 
freq.    1467.74  E(vib)   ...       0.00 
freq.    1469.17  E(vib)   ...       0.00 
freq.    1470.00  E(vib)   ...       0.00 
freq.    1472.28  E(vib)   ...       0.00 
freq.    1479.35  E(vib)   ...       0.00 
freq.    1479.36  E(vib)   ...       0.00 
freq.    1488.35  E(vib)   ...       0.00 
freq.    1490.91  E(vib)   ...       0.00 
freq.    1497.18  E(vib)   ...       0.00 
freq.    1500.78  E(vib)   ...       0.00 
freq.    1502.03  E(vib)   ...       0.00 
freq.    1532.29  E(vib)   ...       0.00 
freq.    1538.79  E(vib)   ...       0.00 
freq.    1560.98  E(vib)   ...       0.00 
freq.    1633.75  E(vib)   ...       0.00 
freq.    1637.89  E(vib)   ...       0.00 
freq.    1659.00  E(vib)   ...       0.00 
freq.    1667.49  E(vib)   ...       0.00 
freq.    1740.06  E(vib)   ...       0.00 
freq.    1741.84  E(vib)   ...       0.00 
freq.    3051.10  E(vib)   ...       0.00 
freq.    3052.12  E(vib)   ...       0.00 
freq.    3052.15  E(vib)   ...       0.00 
freq.    3055.64  E(vib)   ...       0.00 
freq.    3069.69  E(vib)   ...       0.00 
freq.    3070.20  E(vib)   ...       0.00 
freq.    3120.58  E(vib)   ...       0.00 
freq.    3121.01  E(vib)   ...       0.00 
freq.    3124.43  E(vib)   ...       0.00 
freq.    3129.33  E(vib)   ...       0.00 
freq.    3141.16  E(vib)   ...       0.00 
freq.    3142.10  E(vib)   ...       0.00 
freq.    3165.36  E(vib)   ...       0.00 
freq.    3167.17  E(vib)   ...       0.00 
freq.    3167.53  E(vib)   ...       0.00 
freq.    3167.81  E(vib)   ...       0.00 
freq.    3168.25  E(vib)   ...       0.00 
freq.    3177.46  E(vib)   ...       0.00 
freq.    3181.06  E(vib)   ...       0.00 
freq.    3187.38  E(vib)   ...       0.00 
freq.    3192.30  E(vib)   ...       0.00 
freq.    3202.86  E(vib)   ...       0.00 
freq.    3212.49  E(vib)   ...       0.00 
freq.    3219.69  E(vib)   ...       0.00 
freq.    3817.59  E(vib)   ...       0.00 
freq.    3842.23  E(vib)   ...       0.00 

------------
INNER ENERGY
------------

The inner energy is: U= E(el) + E(ZPE) + E(vib) + E(rot) + E(trans)
    E(el)   - is the total energy from the electronic structure calculation
              = E(kin-el) + E(nuc-el) + E(el-el) + E(nuc-nuc)
    E(ZPE)  - the the zero temperature vibrational energy from the frequency calculation
    E(vib)  - the the finite temperature correction to E(ZPE) due to population
              of excited vibrational states
    E(rot)  - is the rotational thermal energy
    E(trans)- is the translational thermal energy

Summary of contributions to the inner energy U:
Electronic energy                ...  -2601.18880715 Eh
Zero point energy                ...      0.44096512 Eh     276.71 kcal/mol
Thermal vibrational correction   ...      0.02910310 Eh      18.26 kcal/mol
Thermal rotational correction    ...      0.00141627 Eh       0.89 kcal/mol
Thermal translational correction ...      0.00141627 Eh       0.89 kcal/mol
-----------------------------------------------------------------------
Total thermal energy                  -2600.71590638 Eh


Summary of corrections to the electronic energy:
(perhaps to be used in another calculation)
Total thermal correction                  0.03193564 Eh      20.04 kcal/mol
Non-thermal (ZPE) correction              0.44096512 Eh     276.71 kcal/mol
-----------------------------------------------------------------------
Total correction                          0.47290076 Eh     296.75 kcal/mol


--------
ENTHALPY
--------

The enthalpy is H = U + kB*T
                kB is Boltzmann's constant
Total thermal energy              ...  -2600.71590638 Eh 
Thermal Enthalpy correction       ...      0.00094421 Eh       0.59 kcal/mol
-----------------------------------------------------------------------
Total Enthalpy                    ...  -2600.71496217 Eh


Note: Only C1 symmetry has been detected, increase convergence thresholds 
      if your molecule has a higher symmetry. Symmetry factor of 1.0 is   
      used for the rotational entropy correction. 
 

Note: Rotational entropy computed according to Herzberg 
Infrared and Raman Spectra, Chapter V,1, Van Nostrand Reinhold, 1945 
Point Group:  C1, Symmetry Number:   1  
Rotational constants in cm-1:     0.008010     0.004248     0.003211 

Vibrational entropy computed according to the QRRHO of S. Grimme
Chem.Eur.J. 2012 18 9955 using a reference frequency of 100.0 cm-1


-------
ENTROPY
-------

The entropy contributions are T*S = T*(S(el)+S(vib)+S(rot)+S(trans))
     S(el)   - electronic entropy
     S(vib)  - vibrational entropy
     S(rot)  - rotational entropy
     S(trans)- translational entropy
The entropies will be listed as multiplied by the temperature to get
units of energy

Electronic entropy                ...      0.00000000 Eh      0.00 kcal/mol
Vibrational entropy               ...      0.05241716 Eh     32.89 kcal/mol
Rotational entropy                ...      0.01707816 Eh     10.72 kcal/mol
Translational entropy             ...      0.02098969 Eh     13.17 kcal/mol
-----------------------------------------------------------------------
Final entropy term                ...      0.09048501 Eh     56.78 kcal/mol

In case the symmetry of your molecule has not been determined correctly
or in case you have a reason to use a different symmetry number we print 
out the resulting rotational entropy values for sn=1,12:

 non-linear molecules -----------------------------------
|  sn= 1 | S(rot)=       0.01707816 Eh     10.72 kcal/mol|
|  sn= 2 | S(rot)=       0.01642370 Eh     10.31 kcal/mol|
|  sn= 3 | S(rot)=       0.01604087 Eh     10.07 kcal/mol|
|  sn= 4 | S(rot)=       0.01576925 Eh      9.90 kcal/mol|
|  sn= 5 | S(rot)=       0.01555856 Eh      9.76 kcal/mol|
|  sn= 6 | S(rot)=       0.01538642 Eh      9.66 kcal/mol|
|  sn= 7 | S(rot)=       0.01524087 Eh      9.56 kcal/mol|
|  sn= 8 | S(rot)=       0.01511479 Eh      9.48 kcal/mol|
|  sn= 9 | S(rot)=       0.01500358 Eh      9.41 kcal/mol|
|  sn=10 | S(rot)=       0.01490410 Eh      9.35 kcal/mol|
|  sn=11 | S(rot)=       0.01481411 Eh      9.30 kcal/mol|
|  sn=12 | S(rot)=       0.01473196 Eh      9.24 kcal/mol|
 linear molecules ---------------------------------------
|  Dinfh | S(rot)=       0.01074641 Eh      6.74 kcal/mol|
|  Cinfv | S(rot)=       0.01140087 Eh      7.15 kcal/mol|
 --------------------------------------------------------


-------------------
GIBBS FREE ENERGY
-------------------

The Gibbs free energy is G = H - T*S

Total enthalpy                    ...  -2600.71496217 Eh 
Total entropy correction          ...     -0.09048501 Eh    -56.78 kcal/mol
-----------------------------------------------------------------------
Final Gibbs free energy         ...  -2600.80544718 Eh

For completeness - the Gibbs free energy minus the electronic energy
G-E(el)                           ...      0.38335997 Eh    240.56 kcal/mol


Maximum memory used throughout the entire PROP-calculation: 908.5 MB

--------------------------------
SUGGESTED CITATIONS FOR THIS RUN
--------------------------------

Below you find a list of papers that are relevant to this ORCA run
We neither can nor want to force you to cite these papers, but we appreciate if you do
You receive ORCA, which is the product of decades of hard work by many enthusiastic individuals, for free
The only thing we kindly ask in return is that you cite our papers,
We deeply appreciate it, if you show your appreciation for ORCA by not just citing the generic ORCA reference.

Please note that relegating all ORCA citations to the supporting information does *not* help us.
SI sections are not indexed - citations you put there will not count into any citation statistics
But we need these citations in order to attract the funding resources that allow us to do what we are doing

Therefore, if you are a happy ORCA user, please consider citing a few of the papers listed below in the main body of your paper

In addition to the list printed below, the program has created the file QOPBIH-S5.bibtex that contains the list in bibtex format
You can import this file easily into all common literature databanks and citation aid programs


List of essential papers. We consider these as the minimum necessary citations

  1. Neese,F.
     Software update: the ORCA program system, version 5.0
     WIRES Comput. Molec. Sci., 2022 12(1)e1606
     doi.org/10.1002/wcms.1606

List of papers to cite with high priority. The work reported in these papers was absolutely
necessary for this run to complete.
Our perspective: the developers of density functionals and basis sets usually get cited in chemistry papers
Good! But without the algorithms to do something with them, the functionals or basis sets would not do anything.
Hence, in our opinion, the algorithm design and method developments papers are equally worthy of getting cited

  1. Neese,F.
     An improvement of the resolution of the identity approximation for the formation of the Coulomb matrix
     J. Comp. Chem., 2003 24(14)1740-1747
     doi.org/10.1002/jcc.10318
  2. Neese,F.; Wennmohs,F.; Hansen,A.; Becker,U.
     Efficient, approximate and parallel Hartree-Fock and hybrid DFT calculations. A 'chain-of-spheres' algorithm for the Hartree-Fock exchange
     Chem. Phys., 2009 356(1-3)98-109
     doi.org/10.1016/j.chemphys.2008.10.036
  3. Bykov,D.; Petrenko,T.; Izsak,R.; Kossmann,S.; Becker,U.; Valeev,E.; Neese,F.
     Efficient implementation of the analytic second derivatives of Hartree-Fock and hybrid DFT energies: a detailed analysis of different approximations
     Molec. Phys., 2015 113 1961-1977
     doi.org/10.1080/00268976.2015.1025114
  4. Helmich-Paris,B.; de Souza,B.; Neese,F.; Izsák,R.
     An improved chain of spheres for exchange algorithm
     J. Chem. Phys., 2021 155 104109
     doi.org/doi: 10.1063/5.0058766.
  5. Neese,F.
     The SHARK Integral Generation and Digestion System
     J. Comp. Chem., 2022  1-16
     doi.org/10.1002/jcc.26942

List of suggested additional citations. These are papers that are important in the 'surrounding' of 
of this run, or papers that preceded the highly important papers. If you like your results we are grateful for a citation.

  1. Izsak,R.; Neese,F.
     An overlap fitted chain of spheres exchange method
     J. Chem. Phys., 2011 135 144105
     doi.org/10.1063/1.3646921
  2. Izsak,R.; Hansen,A.; Neese,F.
     The resolution of identity and chain of spheres approximations for the LPNO-CCSD singles Fock term
     Molec. Phys., 2012 110 2413-2417
     doi.org/10.1080/00268976.2012.687466
  3. Neese,F.
     The ORCA program system
     WIRES Comput. Molec. Sci., 2012 2(1)73-78
     doi.org/10.1002/wcms.81
  4. Izsak,R.; Neese,F.; Klopper,W.
     Robust fitting techniques in the chain of spheres approximation to the Fock exchange: The role of the complementary space
     J. Chem. Phys., 2013 139 
     doi.org/10.1063/1.4819264
  5. Neese,F.
     Software update: the ORCA program system, version 4.0
     WIRES Comput. Molec. Sci., 2018 8(1)1-6
     doi.org/10.1002/wcms.1327
  6. Neese,F.; Wennmohs,F.; Becker,U.; Riplinger,C.
     The ORCA quantum chemistry program package
     J. Chem. Phys., 2020 152 Art. No. L224108
     doi.org/10.1063/5.0004608

List of optional additional citations

  1. Neese,F.
     Approximate second-order SCF convergence for spin unrestricted wavefunctions
     Chem. Phys. Lett., 2000 325(1-3)93-98
     doi.org/10.1016/s0009-2614(00)00662-x

Timings for individual modules:

Sum of individual times          ...    17359.293 sec (= 289.322 min)
Startup calculation              ...      489.107 sec (=   8.152 min)   2.8 %
SCF iterations                   ...     7597.103 sec (= 126.618 min)  43.8 %
Property integrals               ...     2505.606 sec (=  41.760 min)  14.4 %
SCF Response                     ...     3696.012 sec (=  61.600 min)  21.3 %
Property calculations            ...      968.933 sec (=  16.149 min)   5.6 %
SCF Gradient evaluation          ...     2100.920 sec (=  35.015 min)  12.1 %
Geometry relaxation              ...        1.611 sec (=   0.027 min)   0.0 %
                             ****ORCA TERMINATED NORMALLY****
TOTAL RUN TIME: 0 days 4 hours 50 minutes 52 seconds 350 msec
