
                                 *****************
                                 * O   R   C   A *
                                 *****************

                                            #,                                       
                                            ###                                      
                                            ####                                     
                                            #####                                    
                                            ######                                   
                                           ########,                                 
                                     ,,################,,,,,                         
                               ,,#################################,,                 
                          ,,##########################################,,             
                       ,#########################################, ''#####,          
                    ,#############################################,,   '####,        
                  ,##################################################,,,,####,       
                ,###########''''           ''''###############################       
              ,#####''   ,,,,##########,,,,          '''####'''          '####       
            ,##' ,,,,###########################,,,                        '##       
           ' ,,###''''                  '''############,,,                           
         ,,##''                                '''############,,,,        ,,,,,,###''
      ,#''                                            '''#######################'''  
     '                                                          ''''####''''         
             ,#######,   #######,   ,#######,      ##                                
            ,#'     '#,  ##    ##  ,#'     '#,    #''#        ,####,   ,####,        
            ##       ##  ##   ,#'  ##            #'  '#       #'       #'  '#        
            ##       ##  #######   ##           ,######,      #####,   #    #        
            '#,     ,#'  ##    ##  '#,     ,#' ,#      #,     #,   #   #,  ,#        
             '#######'   ##     ##  '#######'  #'      '#     '####' # '####'        



                #########################################################
                #                        -***-                          #
                #          Department of theory and spectroscopy        #
                #                                                       #
                #                      Frank Neese                      #
                #                                                       #
                #     Directorship, Architecture, Infrastructure        #
                #                    SHARK, DRIVERS                     #
                #        Core code/Algorithms in most modules           #
                #                                                       #
                #        Max Planck Institute fuer Kohlenforschung      #
                #                Kaiser Wilhelm Platz 1                 #
                #                 D-45470 Muelheim/Ruhr                 #
                #                      Germany                          #
                #                                                       #
                #                  All rights reserved                  #
                #                        -***-                          #
                #########################################################


                         Program Version 6.0.1  -  RELEASE   -


 With contributions from (in alphabetic order):
[Max-Planck-Institut fuer Kohlenforschung]                               
  Daniel Aravena         : Magnetic Suceptibility                        
  Michael Atanasov       : Ab Initio Ligand Field Theory (pilot matlab implementation)
  Alexander A. Auer      : GIAO ZORA, VPT2 properties, NMR spectrum      
  Ute Becker             : All parallelization in ORCA, NUMFREQ, NUMCALC 
  Giovanni Bistoni       : ED, misc. LED, open-shell LED, HFLD           
  Martin Brehm           : Molecular dynamics                            
  Dmytro Bykov           : pre 5.0 version of the SCF Hessian            
  Marcos Casanova-Páez   : Triplet and SCS-CIS(D). UHF-(DLPNO)-IP/EA/STEOM-CCSD. UHF-CVS-IP/STEOM-CCSD   
  Vijay G. Chilkuri      : MRCI spin determinant printing, contributions to CSF-ICE 
  Pauline Colinet        : FMM embedding                                 
  Dipayan Datta          : RHF DLPNO-CCSD density                        
  Achintya Kumar Dutta   : EOM-CC, STEOM-CC                              
  Nicolas Foglia         : Exact transition moments, OPA infrastructure, MCD improvements    
  Dmitry Ganyushin       : Spin-Orbit,Spin-Spin,Magnetic field MRCI      
  Miquel Garcia-Rates    : C-PCM and meta-GGA Hessian, CCSD/C-PCM, Gaussian charge scheme 
  Tiago L. C. Gouveia    : GS-ROHF, GS-ROCIS                             
  Yang Guo               : DLPNO-NEVPT2, F12-NEVPT2, CIM, IAO-localization        
  Andreas Hansen         : Spin unrestricted coupled pair/coupled cluster methods 
  Ingolf Harden          : AUTO-CI MPn and infrastructure                
  Benjamin Helmich-Paris : MC-RPA, TRAH-(SCF,CASSCF), AVAS, COSX integrals, SCF dyn. polar. 
  Lee Huntington         : MR-EOM, pCC                                   
  Robert Izsak           : Overlap fitted RIJCOSX, COSX-SCS-MP3, EOM     
  Riya Kayal             : Wick's Theorem for AUTO-CI, AUTO-CI UHF-CCSDT 
  Emily Kempfer          : AUTO-CI, RHF CISDT and CCSDT                  
  Christian Kollmar      : KDIIS, OOCD, Brueckner-CCSD(T), CCSD density, CASPT2, CASPT2-K, improved NEVPT2 
  Axel Koslowski         : Symmetry handling                             
  Simone Kossmann        : meta-GGA functionals, TD-DFT gradient, OOMP2, (MP2 Hessian; deprecated post 5.0) 
  Lucas Lang             : DCDCAS                                        
  Marvin Lechner         : AUTO-CI (C++ implementation), FIC-MRCC        
  Spencer Leger          : CASSCF response                               
  Dagmar Lenk            : GEPOL surface, SMD, ORCA-2-JSON               
  Dimitrios Liakos       : Extrapolation schemes; Compound Job, initial MDCI parallelization 
  Dimitrios Manganas     : Further ROCIS development; embedding schemes. LFT, Crystal Embedding 
  Dimitrios Pantazis     : SARC Basis sets                               
  Anastasios Papadopoulos: AUTO-CI, single reference methods and gradients 
  Taras Petrenko         : pre 6.0 DFT Hessian and TD-DFT gradient, (ASA, deprecated), ECA, 1-Electron XAS/XES, NRVS 
  Peter Pinski           : DLPNO-MP2, DLPNO-MP2 Gradient                 
  Christoph Reimann      : Effective Core Potentials                     
  Marius Retegan         : Local ZFS, SOC                                
  Christoph Riplinger    : Optimizer, TS searches, QM/MM, DLPNO-CCSD(T), (RO)-DLPNO pert. Triples 
  Michael Roemelt        : Original ROCIS implementation                 
  Masaaki Saitow         : Open-shell DLPNO-CCSD energy and density      
  Barbara Sandhoefer     : DKH picture change effects                    
  Kantharuban Sivalingam : CASSCF convergence/infrastructure, NEVPT2 and variants, FIC-MRCI 
  Bernardo de Souza      : ESD, SOC TD-DFT                               
  Georgi L. Stoychev     : AutoAux, RI-MP2 NMR, DLPNO-MP2 response, X2C  
  Van Anh Tran           : RI-MP2 g-tensors                              
  Willem Van den Heuvel  : Paramagnetic NMR                              
  Zikuan Wang            : NOTCH, Electric field optimization            
  Frank Wennmohs         : Technical directorship and infrastructure     
  Hang Xu                : AUTO-CI-Response properties                   
                                                                         
[FACCTs GmbH]                                                            
  Markus Bursch, Miquel Garcia-Rates, Christoph Riplinger, Bernardo de Souza, Georgi L. Stoychev 
                                                                 
  APM, Basis sets (HGBS, AHGBS, def-TZVP (Ac-Lr), def2-XVPD (La-Lu)), CI-OPT, improved COSX, DLPNO-Multilevel,           
  DOCKER, DRACO, updates on ESD, GOAT, IRC, LR-CPCM, MBIS, meta-GGA TD-DFT gradient, ML-optimized integration grids, 
  MM, NACMEs, nearIR, NEB, NEB-TS, NL-DFT gradient (VV10), 2- and 3-layer-ONIOM, interface openCOSMO-RS, QMMM,   
  Crystal-QMMM, SF, symmetry and pop. for TD-DFT, r2SCAN hybrids, SOLVATOR                                   
                                                                         
[Other institutions]                                                     
  V. Asgeirsson          : NEB                                           
  Christoph Bannwarth    : sTDA-DFT, sTD-DFT, PBEh-3c, B97-3c, D3        
  Sebastian Ehlert       : rSCAN, r2SCAN, r2SCAN-3c, D4, dhf basis sets  
  Marvin Friede          : D4 for Fr, Ra, Ac-Lr                          
  Lars Goerigk           : TD-DFT with DH, B97 family of functionals     
  Stefan Grimme          : VdW corrections, initial TS optimization, DFT functionals, gCP, sTDA/sTD-DF 
  Waldemar Hujo          : DFT-NL                                        
  H. Jonsson             : NEB                                           
  Holger Kruse           : gCP                                           
  Marcel Mueller         : wB97X-3c, vDZP basis set                      
  Hagen Neugebauer       : wr2SCAN                                       
  Tobias Risthaus        : range-separated hybrid DFT                    
  Lukas Wittmann         : regularized MP2, r2SCAN double-hybrids, wr2SCAN        
                                                                         
We gratefully acknowledge several colleagues who have allowed us to      
interface, adapt or use parts of their codes:                            
  Ed Valeev, F. Pavosevic, A. Kumar             : LibInt (2-el integral package), F12 methods 
  Garnet Chan, S. Sharma, J. Yang, R. Olivares  : DMRG                   
  Ulf Ekstrom                                   : XCFun DFT Library      
  Mihaly Kallay                                 : mrcc  (arbitrary order and MRCC methods)
  Frank Weinhold                                : gennbo (NPA and NBO analysis)           
  Simon Mueller                                 : openCOSMO-RS                            
  Christopher J. Cramer and Donald G. Truhlar   : smd solvation model                     
  S Lehtola, MJT Oliveira, MAL Marques          : LibXC Library                           
  Liviu Ungur et al                             : ANISO software                          


 Your calculation uses the libint2 library for the computation of 2-el integrals
 For citations please refer to: http://libint.valeyev.net

 Your ORCA version has been built with support for libXC version: 6.2.2
 For citations please refer to: https://libxc.gitlab.io

 This ORCA versions uses:
   CBLAS   interface :  Fast vector & matrix operations
   LAPACKE interface :  Fast linear algebra routines
   SCALAPACK package :  Parallel linear algebra routines
   Shared memory     :  Shared parallel matrices
   BLAS/LAPACK       :  OpenBLAS 0.3.27  USE64BITINT DYNAMIC_ARCH NO_AFFINITY Cooperlake SINGLE_THREADED
        Core in use  :  Cooperlake
   Copyright (c) 2011-2014, The OpenBLAS Project


NOTE: MaxCore=3600 MB was set to SCF,MP2,MDCI,CIPSI,MRCI and CIS
      => If you want to overwrite this, your respective input block should be placed after the MaxCore statement
Warning: RI is on but no J-basis has been assigned. Assigning Def2/J (nothing to worry about!)
================================================================================

----- Orbital basis set information -----
Your calculation utilizes the basis: def2-TZVP
   F. Weigend and R. Ahlrichs, Phys. Chem. Chem. Phys. 7, 3297 (2005).

----- AuxJ basis set information -----
Your calculation utilizes the auxiliary basis: def2/J
   F. Weigend, Phys. Chem. Chem. Phys. 8, 1057 (2006).

================================================================================
                                        WARNINGS
                       Please study these warnings very carefully!
================================================================================


WARNING: Geometry Optimization
  ===> : Switching off AutoStart
         For restart on a previous wavefunction, please use MOREAD

================================================================================
                                       INPUT FILE
================================================================================
NAME = RUWZUF-S5.inp
|  1> ! PBE0 def2-TZVP  Opt Freq DEFGRID3
|  2> 
|  3> %maxcore 3600
|  4> 
|  5> %pal
|  6>     nprocs 16
|  7> end
|  8> 
|  9> *xyz 0 1
| 10> Fe 3.3678 5.0421 2.9041
| 11> N 2.9956 3.032 2.2177
| 12> N 2.9482 5.2455 0.8017
| 13> C 5.2871 4.656 3.626
| 14> C 6.464 4.6752 2.8408
| 15> C 7.6811 4.2128 3.3408
| 16> H 8.4489 4.2445 2.7814
| 17> C 7.8092 3.708 4.6257
| 18> C 6.6754 3.7187 5.4243
| 19> H 6.7354 3.4 6.3169
| 20> C 5.4405 4.1884 4.947
| 21> C 6.4188 5.2505 1.4408
| 22> H 5.5033 5.5334 1.2337
| 23> H 6.7033 4.5674 0.7978
| 24> H 7.0195 6.0218 1.3849
| 25> C 9.121 3.1406 5.1253
| 26> H 9.0139 2.8371 6.051
| 27> H 9.8124 3.8333 5.0861
| 28> H 9.3847 2.3831 4.5615
| 29> C 4.2615 4.1769 5.8981
| 30> H 3.4688 4.5274 5.4407
| 31> H 4.4641 4.7372 6.6759
| 32> H 4.0901 3.2579 6.1934
| 33> C 3.1102 1.9346 2.987
| 34> H 3.1783 2.0464 3.9279
| 35> C 3.1332 0.6581 2.4768
| 36> H 3.1943 -0.0938 3.0546
| 37> C 3.0654 0.4888 1.1104
| 38> H 3.101 -0.3822 0.7339
| 39> C 2.9455 1.5956 0.2947
| 40> H 2.899 1.4972 -0.6496
| 41> C 2.8937 2.8568 0.8789
| 42> C 2.7246 4.1099 0.1109
| 43> C 2.3153 4.1297 -1.222
| 44> H 2.1716 3.3173 -1.6929
| 45> C 2.1215 5.3443 -1.8483
| 46> H 1.8349 5.3802 -2.7538
| 47> C 2.3527 6.5073 -1.1373
| 48> H 2.2301 7.3548 -1.5476
| 49> C 2.7636 6.4198 0.1814
| 50> H 2.9217 7.2223 0.6656
| 51> C 1.8985 6.1943 3.8265
| 52> C 2.254 7.3038 4.6228
| 53> C 1.2899 8.0365 5.3225
| 54> H 1.5645 8.7858 5.8374
| 55> C -0.0614 7.6987 5.2866
| 56> C -0.4296 6.62 4.4848
| 57> H -1.345 6.371 4.4336
| 58> C 0.5159 5.8946 3.7527
| 59> C 3.6993 7.7464 4.7349
| 60> H 4.2655 7.152 4.1997
| 61> H 3.981 7.7094 5.6732
| 62> H 3.7859 8.6643 4.4046
| 63> C -1.0732 8.4544 6.104
| 64> H -0.624 9.1721 6.5974
| 65> H -1.505 7.8433 6.7369
| 66> H -1.7506 8.841 5.5104
| 67> C 0.0376 4.7717 2.8585
| 68> H 0.807 4.3591 2.4123
| 69> H -0.5776 5.1304 2.1841
| 70> H -0.4262 4.0983 3.399
| 71> *
| 72> 
| 73>                          ****END OF INPUT****
================================================================================

                       *****************************
                       * Geometry Optimization Run *
                       *****************************

Geometry optimization settings:
Update method            Update   .... BFGS
Choice of coordinates    CoordSys .... (2022) Redundant Internals
Initial Hessian          InHess   .... Almloef's Model
Max. no of cycles        MaxIter  .... 183

Convergence Tolerances:
Energy Change            TolE     ....  5.0000e-06 Eh
Max. Gradient            TolMAXG  ....  3.0000e-04 Eh/bohr
RMS Gradient             TolRMSG  ....  1.0000e-04 Eh/bohr
Max. Displacement        TolMAXD  ....  4.0000e-03 bohr
RMS Displacement         TolRMSD  ....  2.0000e-03 bohr
Strict Convergence                .... False

------------------------------------------------------------------------------
                        ORCA OPTIMIZATION COORDINATE SETUP
------------------------------------------------------------------------------

The optimization will be done in redundant internal coordinates (2022)
Making redundant internal coordinates   ...  (2022 redundants) done
Evaluating the initial hessian          ...  (Almloef) done
Evaluating the coordinates              ...  done
Calculating the B-matrix                .... done
Calculating the G-matrix                .... done
Diagonalizing the G-matrix              .... done
Small eigenvalue found = 2.329e-03
Small eigenvalue found = 4.290e-03
Small eigenvalue found = 7.484e-03
Small eigenvalue found = 8.082e-03
Small eigenvalue found = 1.521e-02
Small eigenvalue found = 1.591e-02
Small eigenvalue found = 1.782e-02
Small eigenvalue found = 1.970e-02
Small eigenvalue found = 2.431e-02
The first mode is                       ....  152
The number of degrees of freedom        ....  177

    -----------------------------------------------------------------
                    Redundant Internal Coordinates


    -----------------------------------------------------------------
         Definition                    Initial Value    Approx d2E/dq
    -----------------------------------------------------------------
      1. B(N   1,Fe  0)                  2.1564         0.339011   
      2. B(N   2,Fe  0)                  2.1535         0.342689   
      3. B(C   3,Fe  0)                  2.0866         0.489184   
      4. B(C   4,C   3)                  1.4149         0.570136   
      5. B(C   5,C   4)                  1.3947         0.614135   
      6. B(H   6,C   5)                  0.9505         0.601155   
      7. B(C   7,C   5)                  1.3864         0.633034   
      8. B(C   8,C   7)                  1.3869         0.632047   
      9. B(H   9,C   8)                  0.9497         0.602954   
     10. B(C  10,C   8)                  1.4048         0.591773   
     11. B(C  10,C   3)                  1.4097         0.581201   
     12. B(C  11,C   4)                  1.5143         0.395798   
     13. B(H  12,C  11)                  0.9803         0.538743   
     14. B(H  13,C  11)                  0.9803         0.538791   
     15. B(H  14,C  11)                  0.9792         0.540963   
     16. B(C  15,C   7)                  1.5141         0.396111   
     17. B(H  16,C  15)                  0.9801         0.539308   
     18. B(H  17,C  15)                  0.9795         0.540421   
     19. B(H  18,C  15)                  0.9804         0.538590   
     20. B(C  19,C  10)                  1.5148         0.394959   
     21. B(H  20,C  19)                  0.9800         0.539374   
     22. B(H  21,C  19)                  0.9798         0.539862   
     23. B(H  22,C  19)                  0.9804         0.538664   
     24. B(C  23,N   1)                  1.3451         0.659996   
     25. B(H  24,C  23)                  0.9500         0.602342   
     26. B(C  25,C  23)                  1.3749         0.660491   
     27. B(H  26,C  25)                  0.9502         0.601749   
     28. B(C  27,C  25)                  1.3785         0.651718   
     29. B(H  28,C  27)                  0.9496         0.603239   
     30. B(C  29,C  27)                  1.3801         0.647875   
     31. B(H  30,C  29)                  0.9506         0.601042   
     32. B(C  31,C  29)                  1.3909         0.622738   
     33. B(C  31,N   1)                  1.3541         0.638593   
     34. B(C  32,C  31)                  1.4794         0.449860   
     35. B(C  32,N   2)                  1.3479         0.653236   
     36. B(C  33,C  32)                  1.3945         0.614625   
     37. B(H  34,C  33)                  0.9499         0.602388   
     38. B(C  35,C  33)                  1.3802         0.647604   
     39. B(H  36,C  35)                  0.9505         0.601261   
     40. B(C  37,C  35)                  1.3826         0.642048   
     41. B(H  38,C  37)                  0.9495         0.603271   
     42. B(C  39,C  37)                  1.3840         0.638714   
     43. B(C  39,N   2)                  1.3408         0.670379   
     44. B(H  40,C  39)                  0.9505         0.601154   
     45. B(C  41,Fe  0)                  2.0826         0.496434   
     46. B(C  42,C  41)                  1.4112         0.577999   
     47. B(C  43,C  42)                  1.3985         0.605496   
     48. B(H  44,C  43)                  0.9497         0.602869   
     49. B(C  45,C  43)                  1.3933         0.617167   
     50. B(C  46,C  45)                  1.3936         0.616647   
     51. B(H  47,C  46)                  0.9500         0.602168   
     52. B(C  48,C  46)                  1.3986         0.605315   
     53. B(C  48,C  41)                  1.4166         0.566562   
     54. B(C  49,C  42)                  1.5157         0.393721   
     55. B(H  50,C  49)                  0.9800         0.539481   
     56. B(H  51,C  49)                  0.9804         0.538674   
     57. B(H  52,C  49)                  0.9794         0.540690   
     58. B(C  53,C  45)                  1.5043         0.410540   
     59. B(H  54,C  53)                  0.9800         0.539496   
     60. B(H  55,C  53)                  0.9800         0.539355   
     61. B(H  56,C  53)                  0.9801         0.539118   
     62. B(C  57,C  48)                  1.5130         0.397601   
     63. B(H  58,C  57)                  0.9805         0.538494   
     64. B(H  59,C  57)                  0.9808         0.537846   
     65. B(H  60,C  57)                  0.9802         0.539091   
     66. A(N   2,Fe  0,C  41)          104.0447         0.469490   
     67. A(C   3,Fe  0,C  41)          126.7327         0.503828   
     68. A(N   1,Fe  0,C   3)           95.5321         0.467300   
     69. A(N   1,Fe  0,C  41)          122.3383         0.468562   
     70. A(N   2,Fe  0,C   3)          122.3074         0.468225   
     71. A(N   1,Fe  0,N   2)           75.1469         0.435986   
     72. A(Fe  0,N   1,C  23)          124.3152         0.436643   
     73. A(Fe  0,N   1,C  31)          116.6357         0.434058   
     74. A(C  23,N   1,C  31)          117.7970         0.435557   
     75. A(Fe  0,N   2,C  39)          124.1384         0.438726   
     76. A(C  32,N   2,C  39)          118.5503         0.438573   
     77. A(Fe  0,N   2,C  32)          116.9425         0.436682   
     78. A(C   4,C   3,C  10)          115.7228         0.422663   
     79. A(Fe  0,C   3,C   4)          124.7908         0.459613   
     80. A(Fe  0,C   3,C  10)          119.0566         0.461229   
     81. A(C   3,C   4,C   5)          121.4947         0.426852   
     82. A(C   5,C   4,C  11)          118.9116         0.400065   
     83. A(C   3,C   4,C  11)          119.5638         0.394875   
     84. A(C   4,C   5,C   7)          122.2487         0.434950   
     85. A(C   4,C   5,H   6)          118.8738         0.384729   
     86. A(H   6,C   5,C   7)          118.8775         0.386765   
     87. A(C   5,C   7,C  15)          121.4873         0.402262   
     88. A(C   8,C   7,C  15)          121.4129         0.402151   
     89. A(C   5,C   7,C   8)          117.0854         0.437208   
     90. A(H   9,C   8,C  10)          119.1494         0.382455   
     91. A(C   7,C   8,C  10)          121.7084         0.431936   
     92. A(C   7,C   8,H   9)          119.1423         0.386861   
     93. A(C   3,C  10,C   8)          121.6655         0.425488   
     94. A(C   8,C  10,C  19)          117.9249         0.397316   
     95. A(C   3,C  10,C  19)          120.4095         0.396061   
     96. A(C   4,C  11,H  14)          109.4946         0.350421   
     97. A(H  13,C  11,H  14)          109.4745         0.331448   
     98. A(H  12,C  11,H  13)          109.4837         0.331222   
     99. A(H  12,C  11,H  14)          109.4823         0.331443   
    100. A(C   4,C  11,H  13)          109.4521         0.350183   
    101. A(C   4,C  11,H  12)          109.4401         0.350178   
    102. A(H  17,C  15,H  18)          109.4835         0.331372   
    103. A(H  16,C  15,H  18)          109.4690         0.331259   
    104. A(C   7,C  15,H  18)          109.4406         0.350208   
    105. A(H  16,C  15,H  17)          109.5083         0.331445   
    106. A(C   7,C  15,H  17)          109.4721         0.350409   
    107. A(C   7,C  15,H  16)          109.4538         0.350287   
    108. A(H  21,C  19,H  22)          109.4569         0.331323   
    109. A(H  20,C  19,H  22)          109.5375         0.331274   
    110. A(C  10,C  19,H  22)          109.4085         0.350044   
    111. A(H  20,C  19,H  21)          109.4659         0.331395   
    112. A(C  10,C  19,H  21)          109.4598         0.350175   
    113. A(C  10,C  19,H  20)          109.4986         0.350122   
    114. A(H  24,C  23,C  25)          118.3995         0.389775   
    115. A(N   1,C  23,C  25)          123.1389         0.441109   
    116. A(N   1,C  23,H  24)          118.4616         0.387249   
    117. A(H  26,C  25,C  27)          120.5773         0.388799   
    118. A(C  23,C  25,C  27)          118.7526         0.443018   
    119. A(C  23,C  25,H  26)          120.6701         0.389707   
    120. A(H  28,C  27,C  29)          120.2996         0.388565   
    121. A(C  25,C  27,C  29)          119.4471         0.441476   
    122. A(C  25,C  27,H  28)          120.2533         0.388967   
    123. A(H  30,C  29,C  31)          120.6171         0.385649   
    124. A(C  27,C  29,C  31)          118.8270         0.437866   
    125. A(C  27,C  29,H  30)          120.5559         0.388318   
    126. A(C  29,C  31,C  32)          123.6595         0.410221   
    127. A(N   1,C  31,C  32)          114.3482         0.409395   
    128. A(N   1,C  31,C  29)          121.9923         0.433867   
    129. A(C  31,C  32,C  33)          122.8048         0.409269   
    130. A(N   2,C  32,C  33)          121.7766         0.434614   
    131. A(N   2,C  32,C  31)          115.3791         0.411044   
    132. A(C  32,C  33,C  35)          119.1721         0.436799   
    133. A(C  32,C  33,H  34)          120.4034         0.384920   
    134. A(H  34,C  33,C  35)          120.4244         0.388441   
    135. A(H  36,C  35,C  37)          120.5696         0.387731   
    136. A(C  33,C  35,C  37)          118.9077         0.440252   
    137. A(C  33,C  35,H  36)          120.5226         0.388314   
    138. A(H  38,C  37,C  39)          120.4293         0.387605   
    139. A(C  35,C  37,C  39)          119.1078         0.439155   
    140. A(C  35,C  37,H  38)          120.4628         0.387957   
    141. A(C  37,C  39,H  40)          118.7759         0.387367   
    142. A(N   2,C  39,H  40)          118.7418         0.388171   
    143. A(N   2,C  39,C  37)          122.4824         0.439684   
    144. A(C  42,C  41,C  48)          116.2053         0.421772   
    145. A(Fe  0,C  41,C  48)          123.2604         0.460320   
    146. A(Fe  0,C  41,C  42)          120.4753         0.462004   
    147. A(C  43,C  42,C  49)          117.8627         0.398700   
    148. A(C  41,C  42,C  49)          120.7657         0.395459   
    149. A(C  41,C  42,C  43)          121.3692         0.426816   
    150. A(H  44,C  43,C  45)          119.0554         0.385250   
    151. A(C  42,C  43,C  45)          121.9146         0.431867   
    152. A(C  42,C  43,H  44)          119.0300         0.383972   
    153. A(C  46,C  45,C  53)          121.5855         0.402940   
    154. A(C  43,C  45,C  53)          121.0986         0.403000   
    155. A(C  43,C  45,C  46)          117.3048         0.433286   
    156. A(H  47,C  46,C  48)          119.1585         0.383875   
    157. A(C  45,C  46,C  48)          121.6021         0.431778   
    158. A(C  45,C  46,H  47)          119.2394         0.385115   
    159. A(C  46,C  48,C  57)          118.7226         0.399367   
    160. A(C  41,C  48,C  57)          119.7570         0.394754   
    161. A(C  41,C  48,C  46)          121.5194         0.425268   
    162. A(H  51,C  49,H  52)          109.4360         0.331408   
    163. A(H  50,C  49,H  52)          109.4635         0.331490   
    164. A(C  42,C  49,H  52)          109.4546         0.350080   
    165. A(H  50,C  49,H  51)          109.4992         0.331285   
    166. A(C  42,C  49,H  51)          109.4970         0.349860   
    167. A(C  42,C  49,H  50)          109.4769         0.349948   
    168. A(H  55,C  53,H  56)          109.4237         0.331318   
    169. A(H  54,C  53,H  56)          109.4421         0.331332   
    170. A(C  45,C  53,H  56)          109.5064         0.352390   
    171. A(H  54,C  53,H  55)          109.4807         0.331356   
    172. A(C  45,C  53,H  55)          109.5123         0.352416   
    173. A(C  45,C  53,H  54)          109.4622         0.352432   
    174. A(H  59,C  57,H  60)          109.4894         0.331161   
    175. A(H  58,C  57,H  60)          109.4609         0.331227   
    176. A(C  48,C  57,H  60)          109.4852         0.350485   
    177. A(H  58,C  57,H  59)          109.4632         0.331101   
    178. A(C  48,C  57,H  59)          109.4654         0.350348   
    179. A(C  48,C  57,H  58)          109.4632         0.350419   
    180. D(C  23,N   1,Fe  0,N   2)    176.1381         0.002027   
    181. D(C  23,N   1,Fe  0,C   3)     54.1436         0.002027   
    182. D(C  23,N   1,Fe  0,C  41)    -86.4355         0.002027   
    183. D(C  31,N   1,Fe  0,C   3)   -112.7549         0.002027   
    184. D(C  31,N   1,Fe  0,N   2)      9.2396         0.002027   
    185. D(C  39,N   2,Fe  0,C   3)   -102.2818         0.002038   
    186. D(C  32,N   2,Fe  0,C   3)     84.8100         0.002038   
    187. D(C  32,N   2,Fe  0,N   1)     -2.3413         0.002038   
    188. D(C  32,N   2,Fe  0,C  41)   -122.6142         0.002038   
    189. D(C  39,N   2,Fe  0,N   1)    170.5669         0.002038   
    190. D(C  10,C   3,Fe  0,N   2)   -163.3426         0.002473   
    191. D(C   4,C   3,Fe  0,N   2)      8.7963         0.002473   
    192. D(C  10,C   3,Fe  0,N   1)    -87.4338         0.002473   
    193. D(C   4,C   3,Fe  0,C  41)   -137.3200         0.002473   
    194. D(C   4,C   3,Fe  0,N   1)     84.7051         0.002473   
    195. D(C   5,C   4,C   3,Fe  0)   -170.1761         0.022298   
    196. D(C  11,C   4,C   3,C  10)   -175.7916         0.022298   
    197. D(C   5,C   4,C   3,C  10)      2.1977         0.022298   
    198. D(C  11,C   4,C   3,Fe  0)     11.8345         0.022298   
    199. D(H   6,C   5,C   4,C   3)   -179.8834         0.026069   
    200. D(H   6,C   5,C   4,C  11)     -1.8813         0.026069   
    201. D(C   7,C   5,C   4,C   3)      0.1430         0.026069   
    202. D(C   7,C   5,C   4,C  11)    178.1451         0.026069   
    203. D(C  15,C   7,C   5,C   4)    176.5968         0.027802   
    204. D(C  15,C   7,C   5,H   6)     -3.3768         0.027802   
    205. D(C   8,C   7,C   5,C   4)     -2.0416         0.027802   
    206. D(C   8,C   7,C   5,H   6)    177.9848         0.027802   
    207. D(H   9,C   8,C   7,C  15)      2.8847         0.027710   
    208. D(C  10,C   8,C   7,C   5)      1.5408         0.027710   
    209. D(C  10,C   8,C   7,C  15)   -177.0986         0.027710   
    210. D(H   9,C   8,C   7,C   5)   -178.4758         0.027710   
    211. D(C   8,C  10,C   3,Fe  0)    170.1527         0.023212   
    212. D(C  19,C  10,C   8,C   7)   -179.2741         0.024107   
    213. D(C   3,C  10,C   8,H   9)   -179.1140         0.024107   
    214. D(C  19,C  10,C   8,H   9)      0.7425         0.024107   
    215. D(C  19,C  10,C   3,C   4)    177.4618         0.023212   
    216. D(C   3,C  10,C   8,C   7)      0.8693         0.024107   
    217. D(C   8,C  10,C   3,C   4)     -2.6852         0.023212   
    218. D(C  19,C  10,C   3,Fe  0)     -9.7004         0.023212   
    219. D(H  14,C  11,C   4,C   3)    118.2398         0.011637   
    220. D(H  13,C  11,C   4,C   3)   -121.7536         0.011637   
    221. D(H  13,C  11,C   4,C   5)     60.2050         0.011637   
    222. D(H  12,C  11,C   4,C   3)     -1.7690         0.011637   
    223. D(H  12,C  11,C   4,C   5)   -179.8104         0.011637   
    224. D(H  18,C  15,C   7,C   5)    -60.1189         0.011655   
    225. D(H  17,C  15,C   7,C   8)   -121.5426         0.011655   
    226. D(H  17,C  15,C   7,C   5)     59.8779         0.011655   
    227. D(H  16,C  15,C   7,C   8)     -1.5073         0.011655   
    228. D(H  16,C  15,C   7,C   5)    179.9132         0.011655   
    229. D(H  22,C  19,C  10,C   3)    119.9398         0.011591   
    230. D(H  20,C  19,C  10,C   8)   -179.9782         0.011591   
    231. D(H  21,C  19,C  10,C   3)   -120.1230         0.011591   
    232. D(H  21,C  19,C  10,C   8)     60.0185         0.011591   
    233. D(H  20,C  19,C  10,C   3)     -0.1198         0.011591   
    234. D(C  25,C  23,N   1,C  31)      0.2597         0.035645   
    235. D(C  25,C  23,N   1,Fe  0)   -166.4990         0.035645   
    236. D(H  24,C  23,N   1,C  31)   -179.7237         0.035645   
    237. D(H  24,C  23,N   1,Fe  0)     13.5176         0.035645   
    238. D(C  27,C  25,C  23,H  24)   -178.5480         0.030445   
    239. D(C  27,C  25,C  23,N   1)      1.4686         0.030445   
    240. D(H  26,C  25,C  23,H  24)      1.4774         0.030445   
    241. D(H  26,C  25,C  23,N   1)   -178.5060         0.030445   
    242. D(H  28,C  27,C  25,C  23)    178.5046         0.029584   
    243. D(C  29,C  27,C  25,H  26)    178.4844         0.029584   
    244. D(C  29,C  27,C  25,C  23)     -1.4902         0.029584   
    245. D(H  28,C  27,C  25,H  26)     -1.5208         0.029584   
    246. D(C  31,C  29,C  27,H  28)    179.8827         0.029212   
    247. D(C  31,C  29,C  27,C  25)     -0.1225         0.029212   
    248. D(H  30,C  29,C  27,H  28)     -0.1049         0.029212   
    249. D(H  30,C  29,C  27,C  25)    179.8899         0.029212   
    250. D(C  32,C  31,C  29,H  30)      1.9379         0.026849   
    251. D(C  32,C  31,C  29,C  27)   -178.0497         0.026849   
    252. D(N   1,C  31,C  29,H  30)   -178.0926         0.026849   
    253. D(N   1,C  31,C  29,C  27)      1.9198         0.026849   
    254. D(C  32,C  31,N   1,C  23)    177.9968         0.033180   
    255. D(C  32,C  31,N   1,Fe  0)    -14.2220         0.033180   
    256. D(C  29,C  31,N   1,C  23)     -1.9753         0.033180   
    257. D(C  29,C  31,N   1,Fe  0)    165.8058         0.033180   
    258. D(C  33,C  32,C  31,C  29)     14.2926         0.013795   
    259. D(C  33,C  32,C  31,N   1)   -165.6790         0.013795   
    260. D(N   2,C  32,C  31,C  29)   -167.9582         0.013795   
    261. D(N   2,C  32,C  31,N   1)     12.0701         0.013795   
    262. D(C  33,C  32,N   2,C  39)      0.2691         0.034855   
    263. D(C  33,C  32,N   2,Fe  0)    173.5886         0.034855   
    264. D(C  31,C  32,N   2,C  39)   -177.5055         0.034855   
    265. D(C  31,C  32,N   2,Fe  0)     -4.1859         0.034855   
    266. D(C  35,C  33,C  32,C  31)    176.9921         0.026113   
    267. D(C  35,C  33,C  32,N   2)     -0.6156         0.026113   
    268. D(H  34,C  33,C  32,C  31)     -3.0010         0.026113   
    269. D(H  34,C  33,C  32,N   2)    179.3913         0.026113   
    270. D(C  37,C  35,C  33,H  34)   -179.3594         0.029186   
    271. D(C  37,C  35,C  33,C  32)      0.6476         0.029186   
    272. D(H  36,C  35,C  33,H  34)      0.5628         0.029186   
    273. D(H  36,C  35,C  33,C  32)   -179.4303         0.029186   
    274. D(C  39,C  37,C  35,H  36)    179.7154         0.028653   
    275. D(C  39,C  37,C  35,C  33)     -0.3625         0.028653   
    276. D(H  38,C  37,C  35,H  36)     -0.1979         0.028653   
    277. D(H  38,C  37,C  35,C  33)    179.7242         0.028653   
    278. D(H  40,C  39,C  37,H  38)     -0.1239         0.028337   
    279. D(H  40,C  39,C  37,C  35)    179.9628         0.028337   
    280. D(N   2,C  39,C  37,H  38)    179.9307         0.028337   
    281. D(N   2,C  39,C  37,C  35)      0.0174         0.028337   
    282. D(H  40,C  39,N   2,C  32)   -179.9131         0.036880   
    283. D(H  40,C  39,N   2,Fe  0)      7.2848         0.036880   
    284. D(C  37,C  39,N   2,C  32)      0.0324         0.036880   
    285. D(C  37,C  39,N   2,Fe  0)   -172.7697         0.036880   
    286. D(C  48,C  41,Fe  0,N   2)     64.1150         0.002502   
    287. D(C  48,C  41,Fe  0,N   1)    -17.0048         0.002502   
    288. D(C  42,C  41,Fe  0,C   3)     32.1521         0.002502   
    289. D(C  42,C  41,Fe  0,N   2)   -118.7881         0.002502   
    290. D(C  42,C  41,Fe  0,N   1)    160.0921         0.002502   
    291. D(C  49,C  42,C  41,C  48)   -177.8147         0.022945   
    292. D(C  49,C  42,C  41,Fe  0)      4.8908         0.022945   
    293. D(C  43,C  42,C  41,C  48)      1.6104         0.022945   
    294. D(C  43,C  42,C  41,Fe  0)   -175.6841         0.022945   
    295. D(C  45,C  43,C  42,C  49)   -179.5530         0.025300   
    296. D(C  45,C  43,C  42,C  41)      1.0058         0.025300   
    297. D(H  44,C  43,C  42,C  49)      0.4148         0.025300   
    298. D(H  44,C  43,C  42,C  41)   -179.0264         0.025300   
    299. D(C  53,C  45,C  43,H  44)     -3.2586         0.026342   
    300. D(C  53,C  45,C  43,C  42)    176.7093         0.026342   
    301. D(C  46,C  45,C  43,H  44)    177.9316         0.026342   
    302. D(C  46,C  45,C  43,C  42)     -2.1006         0.026342   
    303. D(C  48,C  46,C  45,C  53)   -178.2532         0.026295   
    304. D(C  48,C  46,C  45,C  43)      0.5505         0.026295   
    305. D(H  47,C  46,C  45,C  53)      1.7674         0.026295   
    306. D(H  47,C  46,C  45,C  43)   -179.4290         0.026295   
    307. D(C  57,C  48,C  46,C  45)   -177.4914         0.025284   
    308. D(C  41,C  48,C  46,H  47)   -177.8852         0.025284   
    309. D(C  41,C  48,C  46,C  45)      2.1354         0.025284   
    310. D(C  57,C  48,C  41,C  42)    176.4813         0.022008   
    311. D(C  57,C  48,C  41,Fe  0)     -6.3072         0.022008   
    312. D(C  46,C  48,C  41,C  42)     -3.1417         0.022008   
    313. D(C  57,C  48,C  46,H  47)      2.4880         0.025284   
    314. D(C  46,C  48,C  41,Fe  0)    174.0698         0.022008   
    315. D(H  52,C  49,C  42,C  41)    119.4602         0.011522   
    316. D(H  51,C  49,C  42,C  43)     59.9780         0.011522   
    317. D(H  51,C  49,C  42,C  41)   -120.5773         0.011522   
    318. D(H  50,C  49,C  42,C  43)   -179.9684         0.011522   
    319. D(H  50,C  49,C  42,C  41)     -0.5237         0.011522   
    320. D(H  56,C  53,C  45,C  43)    121.1716         0.012482   
    321. D(H  55,C  53,C  45,C  46)     59.9186         0.012482   
    322. D(H  55,C  53,C  45,C  43)   -118.8400         0.012482   
    323. D(H  54,C  53,C  45,C  46)    179.9498         0.012482   
    324. D(H  54,C  53,C  45,C  43)      1.1912         0.012482   
    325. D(H  60,C  57,C  48,C  41)    120.2974         0.011739   
    326. D(H  59,C  57,C  48,C  46)     59.9582         0.011739   
    327. D(H  59,C  57,C  48,C  41)   -119.6753         0.011739   
    328. D(H  58,C  57,C  48,C  46)    179.9400         0.011739   
    329. D(H  58,C  57,C  48,C  41)      0.3065         0.011739   
    -----------------------------------------------------------------

Number of atoms                         .... 61
Number of degrees of freedom            .... 329


         *************************************************************
         *                GEOMETRY OPTIMIZATION CYCLE   1            *
         *************************************************************
---------------------------------
CARTESIAN COORDINATES (ANGSTROEM)
---------------------------------
  Fe     3.367800    5.042100    2.904100
  N      2.995600    3.032000    2.217700
  N      2.948200    5.245500    0.801700
  C      5.287100    4.656000    3.626000
  C      6.464000    4.675200    2.840800
  C      7.681100    4.212800    3.340800
  H      8.448900    4.244500    2.781400
  C      7.809200    3.708000    4.625700
  C      6.675400    3.718700    5.424300
  H      6.735400    3.400000    6.316900
  C      5.440500    4.188400    4.947000
  C      6.418800    5.250500    1.440800
  H      5.503300    5.533400    1.233700
  H      6.703300    4.567400    0.797800
  H      7.019500    6.021800    1.384900
  C      9.121000    3.140600    5.125300
  H      9.013900    2.837100    6.051000
  H      9.812400    3.833300    5.086100
  H      9.384700    2.383100    4.561500
  C      4.261500    4.176900    5.898100
  H      3.468800    4.527400    5.440700
  H      4.464100    4.737200    6.675900
  H      4.090100    3.257900    6.193400
  C      3.110200    1.934600    2.987000
  H      3.178300    2.046400    3.927900
  C      3.133200    0.658100    2.476800
  H      3.194300   -0.093800    3.054600
  C      3.065400    0.488800    1.110400
  H      3.101000   -0.382200    0.733900
  C      2.945500    1.595600    0.294700
  H      2.899000    1.497200   -0.649600
  C      2.893700    2.856800    0.878900
  C      2.724600    4.109900    0.110900
  C      2.315300    4.129700   -1.222000
  H      2.171600    3.317300   -1.692900
  C      2.121500    5.344300   -1.848300
  H      1.834900    5.380200   -2.753800
  C      2.352700    6.507300   -1.137300
  H      2.230100    7.354800   -1.547600
  C      2.763600    6.419800    0.181400
  H      2.921700    7.222300    0.665600
  C      1.898500    6.194300    3.826500
  C      2.254000    7.303800    4.622800
  C      1.289900    8.036500    5.322500
  H      1.564500    8.785800    5.837400
  C     -0.061400    7.698700    5.286600
  C     -0.429600    6.620000    4.484800
  H     -1.345000    6.371000    4.433600
  C      0.515900    5.894600    3.752700
  C      3.699300    7.746400    4.734900
  H      4.265500    7.152000    4.199700
  H      3.981000    7.709400    5.673200
  H      3.785900    8.664300    4.404600
  C     -1.073200    8.454400    6.104000
  H     -0.624000    9.172100    6.597400
  H     -1.505000    7.843300    6.736900
  H     -1.750600    8.841000    5.510400
  C      0.037600    4.771700    2.858500
  H      0.807000    4.359100    2.412300
  H     -0.577600    5.130400    2.184100
  H     -0.426200    4.098300    3.399000

----------------------------
CARTESIAN COORDINATES (A.U.)
----------------------------
  NO LB      ZA    FRAG     MASS         X           Y           Z
   0 Fe   26.0000    0    55.850    6.364220    9.528188    5.487954
   1 N     7.0000    0    14.007    5.660864    5.729650    4.190846
   2 N     7.0000    0    14.007    5.571291    9.912558    1.514993
   3 C     6.0000    0    12.011    9.991171    8.798565    6.852147
   4 C     6.0000    0    12.011   12.215190    8.834848    5.368334
   5 C     6.0000    0    12.011   14.515175    7.961038    6.313197
   6 H     1.0000    0     1.008   15.966107    8.020943    5.256084
   7 C     6.0000    0    12.011   14.757249    7.007105    8.741306
   8 C     6.0000    0    12.011   12.614678    7.027325   10.250441
   9 H     1.0000    0     1.008   12.728061    6.425069   11.937211
  10 C     6.0000    0    12.011   10.281055    7.914929    9.348475
  11 C     6.0000    0    12.011   12.129774    9.922007    2.722717
  12 H     1.0000    0     1.008   10.399730   10.456611    2.331355
  13 H     1.0000    0     1.008   12.667401    8.631135    1.507624
  14 H     1.0000    0     1.008   13.264933   11.379553    2.617082
  15 C     6.0000    0    12.011   17.236192    5.934874    9.685413
  16 H     1.0000    0     1.008   17.033802    5.361342   11.434733
  17 H     1.0000    0     1.008   18.542749    7.243887    9.611336
  18 H     1.0000    0     1.008   17.734513    4.503406    8.619986
  19 C     6.0000    0    12.011    8.053068    7.893197   11.145794
  20 H     1.0000    0     1.008    6.555082    8.555546   10.281433
  21 H     1.0000    0     1.008    8.435926    8.952011   12.615623
  22 H     1.0000    0     1.008    7.729169    6.156539   11.703830
  23 C     6.0000    0    12.011    5.877426    3.655864    5.644612
  24 H     1.0000    0     1.008    6.006117    3.867136    7.422655
  25 C     6.0000    0    12.011    5.920890    1.243629    4.680474
  26 H     1.0000    0     1.008    6.036352   -0.177256    5.772357
  27 C     6.0000    0    12.011    5.792766    0.923698    2.098352
  28 H     1.0000    0     1.008    5.860041   -0.722253    1.386870
  29 C     6.0000    0    12.011    5.566188    3.015247    0.556902
  30 H     1.0000    0     1.008    5.478316    2.829298   -1.227566
  31 C     6.0000    0    12.011    5.468301    5.398570    1.660880
  32 C     6.0000    0    12.011    5.148748    7.766585    0.209571
  33 C     6.0000    0    12.011    4.375283    7.804002   -2.309245
  34 H     1.0000    0     1.008    4.103729    6.268789   -3.199117
  35 C     6.0000    0    12.011    4.009054   10.099263   -3.492781
  36 H     1.0000    0     1.008    3.467458   10.167105   -5.203928
  37 C     6.0000    0    12.011    4.445959   12.297015   -2.149186
  38 H     1.0000    0     1.008    4.214278   13.898558   -2.924540
  39 C     6.0000    0    12.011    5.222447   12.131664    0.342796
  40 H     1.0000    0     1.008    5.521213   13.648169    1.257802
  41 C     6.0000    0    12.011    3.587645   11.705531    7.231037
  42 C     6.0000    0    12.011    4.259443   13.802182    8.735826
  43 C     6.0000    0    12.011    2.437558   15.186784   10.058067
  44 H     1.0000    0     1.008    2.956477   16.602756   11.031087
  45 C     6.0000    0    12.011   -0.116029   14.548435    9.990226
  46 C     6.0000    0    12.011   -0.811826   12.509987    8.475044
  47 H     1.0000    0     1.008   -2.541682   12.039445    8.378290
  48 C     6.0000    0    12.011    0.974910   11.139180    7.091575
  49 C     6.0000    0    12.011    6.990664   14.638575    8.947664
  50 H     1.0000    0     1.008    8.060627   13.515321    7.936283
  51 H     1.0000    0     1.008    7.523000   14.568655   10.720794
  52 H     1.0000    0     1.008    7.154314   16.373154    8.323488
  53 C     6.0000    0    12.011   -2.028054   15.976501   11.534888
  54 H     1.0000    0     1.008   -1.179189   17.332757   12.467279
  55 H     1.0000    0     1.008   -2.844038   14.821689   12.730896
  56 H     1.0000    0     1.008   -3.308155   16.707069   10.413147
  57 C     6.0000    0    12.011    0.071054    9.017206    5.401782
  58 H     1.0000    0     1.008    1.525009    8.237505    4.558586
  59 H     1.0000    0     1.008   -1.091506    9.695051    4.127351
  60 H     1.0000    0     1.008   -0.805401    7.744665    6.423179

--------------------------------
INTERNAL COORDINATES (ANGSTROEM)
--------------------------------
 Fe     0   0   0     0.000000000000     0.00000000     0.00000000
 N      1   0   0     2.156427557327     0.00000000     0.00000000
 N      1   2   0     2.153490533994    75.14694069     0.00000000
 C      1   2   3     2.086606170316    95.53207161   238.00548057
 C      4   1   2     1.414920948322   124.79078959    84.70512781
 C      5   4   1     1.394684971598   121.49470325   189.82385239
 H      6   5   4     0.950499915834   118.87378829   180.11662619
 C      6   5   4     1.386434513419   122.24866823     0.14296691
 C      8   6   5     1.386859362012   117.08537155   357.95844482
 H      9   8   6     0.949686500904   119.14227155   181.52420773
 C      9   8   6     1.404781616480   121.70835190     1.54083579
 C      5   4   1     1.514269833946   119.56383248    11.83452654
 H     12   5   4     0.980338242649   109.44014237   358.23099373
 H     12   5   4     0.980313653888   109.45211877   238.24643424
 H     12   5   4     0.979218560894   109.49459179   118.23981290
 C      8   6   5     1.514054873510   121.48734269   176.59682320
 H     16   8   6     0.980052626138   109.45377559   179.91321619
 H     16   8   6     0.979491648765   109.47210244    59.87789122
 H     16   8   6     0.980415411956   109.44059101   299.88105214
 C     11   9   8     1.514847998975   117.92487933   180.72591126
 H     20  11   9     0.980019540622   109.49861654   180.02176792
 H     20  11   9     0.979773285000   109.45979169    60.01850867
 H     20  11   9     0.980378013829   109.40853118   300.08131022
 C      2   1   3     1.345080819133   124.31520236   176.13808088
 H     24   2   1     0.949962978226   118.46157772    13.51756205
 C     24   2   1     1.374876463541   123.13894464   193.50098748
 H     26  24   2     0.950231371825   120.67006075   181.49397587
 C     26  24   2     1.378516699210   118.75262223     1.46855645
 H     28  26  24     0.949558113019   120.25330862   178.50460158
 C     28  26  24     1.380126349288   119.44711618   358.50982610
 H     30  28  26     0.950551050707   120.55587624   179.88991250
 C      2   1   3     1.354054685011   116.63573079     9.23961791
 C      3   1   2     1.347883140335   116.94246576   357.65867278
 C     33   3   1     1.394467977402   121.77656055   173.58864228
 H     34  33   3     0.949942240349   120.40344884   179.39132613
 C     34  33   3     1.380240301542   119.17213415   359.38437495
 H     36  34  33     0.950451797831   120.52264644   180.56972088
 C     36  34  33     1.382585780341   118.90774665     0.64759852
 H     38  36  34     0.949543627223   120.46276619   179.72423152
 C      3   1   2     1.340831734410   124.13839986   170.56686999
 H     40   3   1     0.950500657548   118.74177473     7.28477829
 C      1   2   3     2.082601519734   122.33825165    97.42639745
 C     42   1   2     1.411192470927   120.47525458   160.09210491
 C     43  42   1     1.398541450941   121.36918284   184.31586912
 H     44  43  42     0.949725044421   119.02995069   180.97362974
 C     44  43  42     1.393344659444   121.91460056     1.00576912
 C     46  44  43     1.393573883940   117.30481911   357.89943041
 H     47  46  44     0.950041893813   119.23943077   180.57104481
 C     47  46  44     1.398622829787   121.60210481     0.55051785
 C     43  42   1     1.515702233290   120.76574076     4.89079647
 H     50  43  42     0.979965734095   109.47692483   359.47632383
 H     50  43  42     0.980372776040   109.49700857   239.42269556
 H     50  43  42     0.979355941423   109.45463658   119.46024245
 C     46  44  43     1.504315289426   121.09859647   176.70929438
 H     54  46  44     0.979957902157   109.46223146     1.19122322
 H     54  46  44     0.980029009775   109.51225013   241.16003571
 H     54  46  44     0.980148600978   109.50642824   121.17158285
 C     49  47  46     1.513033026738   118.72259305   182.50855298
 H     58  49  47     0.980463951403   109.46323719   179.94000109
 H     58  49  47     0.980791562973   109.46539469    59.95823406
 H     58  49  47     0.980162359000   109.48523412   299.93099313

---------------------------
INTERNAL COORDINATES (A.U.)
---------------------------
 Fe     0   0   0     0.000000000000     0.00000000     0.00000000
 N      1   0   0     4.075057510989     0.00000000     0.00000000
 N      1   2   0     4.069507341240    75.14694069     0.00000000
 C      1   2   3     3.943114211247    95.53207161   238.00548057
 C      4   1   2     2.673813093476   124.79078959    84.70512781
 C      5   4   1     2.635572639415   121.49470325   189.82385239
 H      6   5   4     1.796184531241   118.87378829   180.11662619
 C      6   5   4     2.619981532979   122.24866823     0.14296691
 C      8   6   5     2.620784380467   117.08537155   357.95844482
 H      9   8   6     1.794647399791   119.14227155   181.52420773
 C      9   8   6     2.654652533114   121.70835190     1.54083579
 C      5   4   1     2.861555279017   119.56383248    11.83452654
 H     12   5   4     1.852570797216   109.44014237   358.23099373
 H     12   5   4     1.852524331193   109.45211877   238.24643424
 H     12   5   4     1.850454905343   109.49459179   118.23981290
 C      8   6   5     2.861149062663   121.48734269   176.59682320
 H     16   8   6     1.852031060231   109.45377559   179.91321619
 H     16   8   6     1.850970966628   109.47210244    59.87789122
 H     16   8   6     1.852716626072   109.44059101   299.88105214
 C     11   9   8     2.862647852582   117.92487933   180.72591126
 H     20  11   9     1.851968537666   109.49861654   180.02176792
 H     20  11   9     1.851503181983   109.45979169    60.01850867
 H     20  11   9     1.852645953855   109.40853118   300.08131022
 C      2   1   3     2.541834376152   124.31520236   176.13808088
 H     24   2   1     1.795169866211   118.46157772    13.51756205
 C     24   2   1     2.598139984067   123.13894464   193.50098748
 H     26  24   2     1.795677056609   120.67006075   181.49397587
 C     26  24   2     2.605019032543   118.75262223     1.46855645
 H     28  26  24     1.794404781849   120.25330862   178.50460158
 C     28  26  24     2.608060830364   119.44711618   358.50982610
 H     30  28  26     1.796281162147   120.55587624   179.88991250
 C      2   1   3     2.558792525024   116.63573079     9.23961791
 C      3   1   2     2.547129995763   116.94246576   357.65867278
 C     33   3   1     2.635162579813   121.77656055   173.58864228
 H     34  33   3     1.795130677304   120.40344884   179.39132613
 C     34  33   3     2.608276168915   119.17213415   359.38437495
 H     36  34  33     1.796093601393   120.52264644   180.56972088
 C     36  34  33     2.612708481498   118.90774665     0.64759852
 H     38  36  34     1.794377407662   120.46276619   179.72423152
 C      3   1   2     2.533804769705   124.13839986   170.56686999
 H     40   3   1     1.796185932879   118.74177473     7.28477829
 C      1   2   3     3.935546518386   122.33825165    97.42639745
 C     42   1   2     2.666767292303   120.47525458   160.09210491
 C     43  42   1     2.642860329215   121.36918284   184.31586912
 H     44  43  42     1.794720236481   119.02995069   180.97362974
 C     44  43  42     2.633039816510   121.91460056     1.00576912
 C     46  44  43     2.633472988032   117.30481911   357.89943041
 H     47  46  44     1.795318995059   119.23943077   180.57104481
 C     47  46  44     2.643014112946   121.60210481     0.55051785
 C     43  42   1     2.864262121491   120.76574076     4.89079647
 H     50  43  42     1.851866858066   109.47692483   359.47632383
 H     50  43  42     1.852636055867   109.49700857   239.42269556
 H     50  43  42     1.850714516918   109.45463658   119.46024245
 C     46  44  43     2.842743916085   121.09859647   176.70929438
 H     54  46  44     1.851852057849   109.46223146     1.19122322
 H     54  46  44     1.851986431772   109.51225013   241.16003571
 H     54  46  44     1.852212426395   109.50642824   121.17158285
 C     49  47  46     2.859218052113   118.72259305   182.50855298
 H     58  49  47     1.852808352333   109.46323719   179.94000109
 H     58  49  47     1.853427448480   109.46539469    59.95823406
 H     58  49  47     1.852238425288   109.48523412   299.93099313

---------------------
BASIS SET INFORMATION
---------------------
There are 4 groups of distinct atoms

 Group   1 Type Fe  : 17s11p7d1f contracted to 6s4p4d1f pattern {842111/6311/4111/1}
 Group   2 Type N   : 11s6p2d1f contracted to 5s3p2d1f pattern {62111/411/11/1}
 Group   3 Type C   : 11s6p2d1f contracted to 5s3p2d1f pattern {62111/411/11/1}
 Group   4 Type H   : 5s1p contracted to 3s1p pattern {311/1}

Atom   0Fe   basis set group =>   1
Atom   1N    basis set group =>   2
Atom   2N    basis set group =>   2
Atom   3C    basis set group =>   3
Atom   4C    basis set group =>   3
Atom   5C    basis set group =>   3
Atom   6H    basis set group =>   4
Atom   7C    basis set group =>   3
Atom   8C    basis set group =>   3
Atom   9H    basis set group =>   4
Atom  10C    basis set group =>   3
Atom  11C    basis set group =>   3
Atom  12H    basis set group =>   4
Atom  13H    basis set group =>   4
Atom  14H    basis set group =>   4
Atom  15C    basis set group =>   3
Atom  16H    basis set group =>   4
Atom  17H    basis set group =>   4
Atom  18H    basis set group =>   4
Atom  19C    basis set group =>   3
Atom  20H    basis set group =>   4
Atom  21H    basis set group =>   4
Atom  22H    basis set group =>   4
Atom  23C    basis set group =>   3
Atom  24H    basis set group =>   4
Atom  25C    basis set group =>   3
Atom  26H    basis set group =>   4
Atom  27C    basis set group =>   3
Atom  28H    basis set group =>   4
Atom  29C    basis set group =>   3
Atom  30H    basis set group =>   4
Atom  31C    basis set group =>   3
Atom  32C    basis set group =>   3
Atom  33C    basis set group =>   3
Atom  34H    basis set group =>   4
Atom  35C    basis set group =>   3
Atom  36H    basis set group =>   4
Atom  37C    basis set group =>   3
Atom  38H    basis set group =>   4
Atom  39C    basis set group =>   3
Atom  40H    basis set group =>   4
Atom  41C    basis set group =>   3
Atom  42C    basis set group =>   3
Atom  43C    basis set group =>   3
Atom  44H    basis set group =>   4
Atom  45C    basis set group =>   3
Atom  46C    basis set group =>   3
Atom  47H    basis set group =>   4
Atom  48C    basis set group =>   3
Atom  49C    basis set group =>   3
Atom  50H    basis set group =>   4
Atom  51H    basis set group =>   4
Atom  52H    basis set group =>   4
Atom  53C    basis set group =>   3
Atom  54H    basis set group =>   4
Atom  55H    basis set group =>   4
Atom  56H    basis set group =>   4
Atom  57C    basis set group =>   3
Atom  58H    basis set group =>   4
Atom  59H    basis set group =>   4
Atom  60H    basis set group =>   4
---------------------------------
AUXILIARY/J BASIS SET INFORMATION
---------------------------------
There are 4 groups of distinct atoms

 Group   1 Type Fe  : 19s5p5d3f3g contracted to 8s5p5d2f3g pattern {121111111/11111/11111/21/111}
 Group   2 Type N   : 12s5p4d2f1g contracted to 6s4p3d1f1g pattern {711111/2111/211/2/1}
 Group   3 Type C   : 12s5p4d2f1g contracted to 6s4p3d1f1g pattern {711111/2111/211/2/1}
 Group   4 Type H   : 5s2p1d contracted to 3s1p1d pattern {311/2/1}

Atom   0Fe   basis set group =>   1
Atom   1N    basis set group =>   2
Atom   2N    basis set group =>   2
Atom   3C    basis set group =>   3
Atom   4C    basis set group =>   3
Atom   5C    basis set group =>   3
Atom   6H    basis set group =>   4
Atom   7C    basis set group =>   3
Atom   8C    basis set group =>   3
Atom   9H    basis set group =>   4
Atom  10C    basis set group =>   3
Atom  11C    basis set group =>   3
Atom  12H    basis set group =>   4
Atom  13H    basis set group =>   4
Atom  14H    basis set group =>   4
Atom  15C    basis set group =>   3
Atom  16H    basis set group =>   4
Atom  17H    basis set group =>   4
Atom  18H    basis set group =>   4
Atom  19C    basis set group =>   3
Atom  20H    basis set group =>   4
Atom  21H    basis set group =>   4
Atom  22H    basis set group =>   4
Atom  23C    basis set group =>   3
Atom  24H    basis set group =>   4
Atom  25C    basis set group =>   3
Atom  26H    basis set group =>   4
Atom  27C    basis set group =>   3
Atom  28H    basis set group =>   4
Atom  29C    basis set group =>   3
Atom  30H    basis set group =>   4
Atom  31C    basis set group =>   3
Atom  32C    basis set group =>   3
Atom  33C    basis set group =>   3
Atom  34H    basis set group =>   4
Atom  35C    basis set group =>   3
Atom  36H    basis set group =>   4
Atom  37C    basis set group =>   3
Atom  38H    basis set group =>   4
Atom  39C    basis set group =>   3
Atom  40H    basis set group =>   4
Atom  41C    basis set group =>   3
Atom  42C    basis set group =>   3
Atom  43C    basis set group =>   3
Atom  44H    basis set group =>   4
Atom  45C    basis set group =>   3
Atom  46C    basis set group =>   3
Atom  47H    basis set group =>   4
Atom  48C    basis set group =>   3
Atom  49C    basis set group =>   3
Atom  50H    basis set group =>   4
Atom  51H    basis set group =>   4
Atom  52H    basis set group =>   4
Atom  53C    basis set group =>   3
Atom  54H    basis set group =>   4
Atom  55H    basis set group =>   4
Atom  56H    basis set group =>   4
Atom  57C    basis set group =>   3
Atom  58H    basis set group =>   4
Atom  59H    basis set group =>   4
Atom  60H    basis set group =>   4


           ************************************************************
           *        Program running with 16 parallel MPI-processes    *
           *              working on a common directory               *
           ************************************************************
------------------------------------------------------------------------------
                             ORCA STARTUP CALCULATIONS
                           -- RI-GTO INTEGRALS CHOSEN --
------------------------------------------------------------------------------
------------------------------------------------------------------------------
                   ___                                                        
                  /   \      - P O W E R E D   B Y -                         
                 /     \                                                     
                 |  |  |   _    _      __       _____    __    __             
                 |  |  |  | |  | |    /  \     |  _  \  |  |  /  |          
                  \  \/   | |  | |   /    \    | | | |  |  | /  /          
                 / \  \   | |__| |  /  /\  \   | |_| |  |  |/  /          
                |  |  |   |  __  | /  /__\  \  |    /   |      \           
                |  |  |   | |  | | |   __   |  |    \   |  |\   \          
                \     /   | |  | | |  |  |  |  | |\  \  |  | \   \       
                 \___/    |_|  |_| |__|  |__|  |_| \__\ |__|  \__/        
                                                                              
                      - O R C A' S   B I G   F R I E N D -                    
                                      &                                       
                       - I N T E G R A L  F E E D E R -                       
                                                                              
 v1 FN, 2020, v2 2021, v3 2022-2024                                           
------------------------------------------------------------------------------


----------------------
SHARK INTEGRAL PACKAGE
----------------------

Number of atoms                             ...     61
Number of basis functions                   ...   1155
Number of shells                            ...    465
Maximum angular momentum                    ...      3
Integral batch strategy                     ... SHARK/LIBINT Hybrid
RI-J (if used) integral strategy            ... SPLIT-RIJ (Revised 2003 algorithm where possible)
Printlevel                                  ...      1
Contraction scheme used                     ... SEGMENTED contraction
Prescreening option                         ... SCHWARTZ
   Thresh                                   ... 2.500e-11
   Tcut                                     ... 2.500e-12
   Tpresel                                  ... 2.500e-12 
Coulomb Range Separation                    ... NOT USED
Exchange Range Separation                   ... NOT USED
Multipole approximations                    ... NOT USED
Finite Nucleus Model                        ... NOT USED
CABS basis                                  ... NOT available
Auxiliary Coulomb fitting basis             ... AVAILABLE
   # of basis functions in Aux-J            ...   1889
   # of shells in Aux-J                     ...    623
   Maximum angular momentum in Aux-J        ...      4
Auxiliary J/K fitting basis                 ... NOT available
Auxiliary Correlation fitting basis         ... NOT available
Auxiliary 'external' fitting basis          ... NOT available

Checking pre-screening integrals            ... done (  0.0 sec) Dimension = 465
Check shell pair data                       ... done (  0.0 sec)
Shell pair information
Shell pair cut-off parameter TPreSel        ...   2.5e-12
Total number of shell pairs                 ...    108345
Shell pairs after pre-screening             ...     69724
Total number of primitive shell pairs       ...    334145
Primitive shell pairs kept                  ...    136684
          la=0 lb=0:  18946 shell pairs
          la=1 lb=0:  20420 shell pairs
          la=1 lb=1:   5557 shell pairs
          la=2 lb=0:   9915 shell pairs
          la=2 lb=1:   5423 shell pairs
          la=2 lb=2:   1355 shell pairs
          la=3 lb=0:   4292 shell pairs
          la=3 lb=1:   2417 shell pairs
          la=3 lb=2:   1151 shell pairs
          la=3 lb=3:    248 shell pairs

Calculating one electron integrals          ... done (  0.1 sec)
done (  0.3 sec)
Calculating Nuclear repulsion               ... done (  0.0 sec) ENN=   3585.208168040509 Eh

Diagonalization of the overlap matrix:
Smallest eigenvalue                        ... 3.803e-06
Time for diagonalization                   ...    0.173 sec
Threshold for overlap eigenvalues          ... 1.000e-07
Number of eigenvalues below threshold      ... 0
Time for construction of square roots      ...    0.188 sec
Total time needed                          ...    0.391 sec

-------------------
DFT GRID GENERATION
-------------------

General Integration Accuracy     IntAcc      ... 4.959
Radial Grid Type                 RadialGrid  ... OptM3 with GC (2021)
Angular Grid (max. ang.)         AngularGrid ... 6 (Lebedev-590)
Angular grid pruning method      GridPruning ... 4 (adaptive)
Weight generation scheme         WeightScheme... mBecke (2022)
Basis function cutoff            BFCut       ... 1.0000e-11
Integration weight cutoff        WCut        ... 1.0000e-14
Partially contracted basis set               ... off
Rotationally invariant grid construction     ... off
Angular grids for H and He will be reduced by one unit
Core-polarized basis detected: some atoms will have their core
                               angular grid increased.

Total number of grid points                  ...   701840
Total number of batches                      ...    10991
Average number of points per batch           ...       63
Average number of grid points per atom       ...    11506

--------------------
COSX GRID GENERATION
--------------------

GRIDX 1
-------
General Integration Accuracy     IntAcc      ... 4.020
Radial Grid Type                 RadialGrid  ... OptM3 with GC (2021)
Angular Grid (max. ang.)         AngularGrid ... 2 (Lebedev-110)
Angular grid pruning method      GridPruning ... 4 (adaptive)
Weight generation scheme         WeightScheme... mBecke (2022)
Basis function cutoff            BFCut       ... 1.0000e-11
Integration weight cutoff        WCut        ... 1.0000e-14
Partially contracted basis set               ... on
Rotationally invariant grid construction     ... off
Angular grids for H and He will be reduced by one unit
Core-polarized basis detected: some atoms will have their core
                               angular grid increased.

Total number of grid points                  ...    78618
Total number of batches                      ...      648
Average number of points per batch           ...      121
Average number of grid points per atom       ...     1289
UseSFitting                                  ... on

GRIDX 2
-------
General Integration Accuracy     IntAcc      ... 4.338
Radial Grid Type                 RadialGrid  ... OptM3 with GC (2021)
Angular Grid (max. ang.)         AngularGrid ... 3 (Lebedev-194)
Angular grid pruning method      GridPruning ... 4 (adaptive)
Weight generation scheme         WeightScheme... mBecke (2022)
Basis function cutoff            BFCut       ... 1.0000e-11
Integration weight cutoff        WCut        ... 1.0000e-14
Partially contracted basis set               ... on
Rotationally invariant grid construction     ... off
Angular grids for H and He will be reduced by one unit
Core-polarized basis detected: some atoms will have their core
                               angular grid increased.

Total number of grid points                  ...   165113
Total number of batches                      ...     1321
Average number of points per batch           ...      124
Average number of grid points per atom       ...     2707
UseSFitting                                  ... on

GRIDX 3
-------
General Integration Accuracy     IntAcc      ... 4.871
Radial Grid Type                 RadialGrid  ... OptM3 with GC (2021)
Angular Grid (max. ang.)         AngularGrid ... 4 (Lebedev-302)
Angular grid pruning method      GridPruning ... 4 (adaptive)
Weight generation scheme         WeightScheme... mBecke (2022)
Basis function cutoff            BFCut       ... 1.0000e-11
Integration weight cutoff        WCut        ... 1.0000e-14
Partially contracted basis set               ... on
Rotationally invariant grid construction     ... off
Angular grids for H and He will be reduced by one unit
Core-polarized basis detected: some atoms will have their core
                               angular grid increased.

Total number of grid points                  ...   312109
Total number of batches                      ...     2471
Average number of points per batch           ...      126
Average number of grid points per atom       ...     5117
UseSFitting                                  ... on
Initializing property integral containers    ... done (  0.0 sec)

SHARK setup successfully completed in  12.6 seconds

Maximum memory used throughout the entire STARTUP-calculation: 231.1 MB


           ************************************************************
           *        Program running with 16 parallel MPI-processes    *
           *              working on a common directory               *
           ************************************************************
-------------------------------------------------------------------------------
                                 ORCA GUESS
                   Start orbitals & Density for SCF / CASSCF
-------------------------------------------------------------------------------

------------
SCF SETTINGS
------------
Hamiltonian:
 Density Functional     Method          .... DFT(GTOs)
 Exchange Functional    Exchange        .... PBE
   PBE kappa parameter   XKappa         ....  0.804000
   PBE mue parameter    XMuePBE         ....  0.219520
 Correlation Functional Correlation     .... PBE
   PBE beta parameter  CBetaPBE         ....  0.066725
 LDA part of GGA corr.  LDAOpt          .... PW91-LDA
 Gradients option       PostSCFGGA      .... off
 Hybrid DFT is turned on
   Fraction HF Exchange ScalHFX         ....  0.250000
   Scaling of DF-GGA-X  ScalDFX         ....  0.750000
   Scaling of DF-GGA-C  ScalDFC         ....  1.000000
   Scaling of DF-LDA-C  ScalLDAC        ....  1.000000
   Perturbative correction              ....  0.000000
   NL short-range parameter             ....  6.900000
 RI-approximation to the Coulomb term is turned on
   Number of AuxJ basis functions       .... 1889
   RIJ-COSX (HFX calculated with COS-X)).... on


General Settings:
 Integral files         IntName         .... RUWZUF-S5
 Hartree-Fock type      HFTyp           .... RHF
 Total Charge           Charge          ....    0
 Multiplicity           Mult            ....    1
 Number of Electrons    NEL             ....  238
 Basis Dimension        Dim             .... 1155
 Nuclear Repulsion      ENuc            ....   3585.2081680405 Eh

Convergence Acceleration:
 AO-DIIS                CNVDIIS         .... on
   Start iteration      DIISMaxIt       ....    12
   Startup error        DIISStart       ....  0.200000
   # of expansion vecs  DIISMaxEq       ....     5
   Bias factor          DIISBfac        ....   1.050
   Max. coefficient     DIISMaxC        ....  10.000
 MO-DIIS                CNVKDIIS        .... off
 Trust-Rad. Augm. Hess. CNVTRAH         .... auto
   Auto Start mean grad. ratio tolernc. ....  1.125000
   Auto Start start iteration           ....    50
   Auto Start num. interpolation iter.  ....    10
   Max. Number of Micro iterations      ....    24
   Max. Number of Macro iterations      .... Maxiter - #DIIS iter
   Number of Davidson start vectors     ....     2
   Converg. threshold    (grad. norm)   ....   1.000e-05
   Grad. Scal. Fac. for Micro threshold ....   0.100
   Minimum threshold for Micro iter.    ....   1.000e-02
   NR start threshold (gradient norm)   ....   1.000e-04
   Initial trust radius                 ....   0.400
   Minimum AH scaling param. (alpha)    ....   1.000
   Maximum AH scaling param. (alpha)    .... 1000.000
   Quad. conv. algorithm                .... NR
   White noise on init. David. guess    .... on
   Maximum white noise                  ....   0.010
   Pseudo random numbers                .... off
   Inactive MOs                         .... canonical
   Orbital update algorithm             .... Taylor
   Preconditioner                       .... Diag
   Full preconditioner red. dimension   ....   250
 SOSCF                  CNVSOSCF        .... on
   Start iteration      SOSCFMaxIt      ....   150
   Startup grad/error   SOSCFStart      ....  0.003300
   Hessian update       SOSCFHessUp     .... L-BFGS
 Level Shifting         CNVShift        .... on
   Level shift para.    LevelShift      ....    0.2500
   Turn off err/grad.   ShiftErr        ....    0.0010
 Zerner damping         CNVZerner       .... off
 Static damping         CNVDamp         .... on
   Fraction old density DampFac         ....    0.7000
   Max. Damping (<1)    DampMax         ....    0.9800
   Min. Damping (>=0)   DampMin         ....    0.0000
   Turn off err/grad.   DampErr         ....    0.1000

SCF Procedure:
 Maximum # iterations   MaxIter         ....   125
 SCF integral mode      SCFMode         .... Direct
   Integral package                     .... SHARK and LIBINT hybrid scheme
 Reset frequency        DirectResetFreq ....    20
 Integral Threshold     Thresh          ....  2.500e-11 Eh
 Primitive CutOff       TCut            ....  2.500e-12 Eh

Convergence Tolerance:
 Convergence Check Mode ConvCheckMode   .... Total+1el-Energy
 Convergence forced     ConvForced      .... 0
 Energy Change          TolE            ....  1.000e-08 Eh
 1-El. energy change                    ....  1.000e-05 Eh
 Orbital Gradient       TolG            ....  1.000e-05
 Orbital Rotation angle TolX            ....  1.000e-05
 DIIS Error             TolErr          ....  5.000e-07

------------------------------
INITIAL GUESS: MODEL POTENTIAL
------------------------------
Loading Hartree-Fock densities                     ... done
Calculating cut-offs                               ... done
Initializing the effective Hamiltonian             ... done
Setting up the integral package (SHARK)            ... done
done (   0.6 sec)
Making the grid                                    ... done (   0.4 sec)
Mapping shells                                     ... done
Starting the XC term evaluation                    ... done (   0.3 sec)
  promolecular density results
     # of electrons  =    237.989539246
     EX              =   -219.976477256
     EC              =     -8.282587001
     EX+EC           =   -228.259064258
done (   0.2 sec)
done (   0.2 sec)
Back transforming the eigenvectors                 ... done (   0.1 sec)
done
                      ------------------
                      INITIAL GUESS DONE (   1.9 sec)
                      ------------------
             **** ENERGY FILE WAS UPDATED (RUWZUF-S5.en.tmp) ****
Finished Guess after   2.5 sec
Maximum memory used throughout the entire GUESS-calculation: 126.2 MB


           ************************************************************
           *        Program running with 16 parallel MPI-processes    *
           *              working on a common directory               *
           ************************************************************

-------------------------------------------------------------------------------------------
                                      ORCA LEAN-SCF
                              memory conserving SCF solver
-------------------------------------------------------------------------------------------

----------------------------------------D-I-I-S--------------------------------------------
Iteration    Energy (Eh)           Delta-E    RMSDP     MaxDP     DIISErr   Damp  Time(sec)
-------------------------------------------------------------------------------------------
               ***  Starting incremental Fock matrix formation  ***
    1    -2455.6175831323012062     0.00e+00  9.92e-04  9.38e-02  2.15e-01  0.700  35.0
Warning: op=0 Small HOMO/LUMO gap (   0.003) - skipping pre-diagonalization
         Will do a full diagonalization
    2    -2456.0262761384251462    -4.09e-01  1.10e-03  9.66e-02  1.22e-01  0.700  16.4
                               ***Turning on AO-DIIS***
    3    -2456.2236622688947136    -1.97e-01  5.88e-04  6.00e-02  5.45e-02  0.700  15.8
    4    -2456.3379810210967662    -1.14e-01  9.22e-04  9.64e-02  3.15e-02  0.000  14.5
    5    -2456.5843124368370809    -2.46e-01  2.23e-04  1.56e-02  2.36e-02  0.000  15.0
    6    -2456.5865585104434103    -2.25e-03  1.31e-04  1.75e-02  2.30e-02  0.000  13.4
    7    -2456.5879518345932411    -1.39e-03  7.32e-05  7.41e-03  4.02e-03  0.000  12.8
    8    -2456.5886354448953171    -6.84e-04  5.69e-05  6.86e-03  5.48e-03  0.000  11.9
    9    -2456.5892718639065606    -6.36e-04  6.96e-05  8.98e-03  3.34e-03  0.000  11.7
                              *** Initializing SOSCF ***
---------------------------------------S-O-S-C-F--------------------------------------
Iteration    Energy (Eh)           Delta-E    RMSDP     MaxDP     MaxGrad    Time(sec)
--------------------------------------------------------------------------------------
   10    -2456.5899155528745723    -6.44e-04  5.33e-05  7.49e-03  2.81e-03    12.2
               *** Restarting incremental Fock matrix formation ***
   11    -2456.5903746202980074    -4.59e-04  9.89e-05  1.12e-02  3.60e-03    34.2
   12    -2456.5908995401109678    -5.25e-04  5.01e-04  5.54e-02  2.17e-03    23.7
   13    -2456.5891048495664108     1.79e-03  2.83e-04  2.90e-02  8.56e-03    27.5
   14    -2456.5912893264126069    -2.18e-03  2.67e-04  2.22e-02  3.81e-03    26.2
   15    -2456.5907286450287756     5.61e-04  1.71e-04  1.51e-02  3.22e-03    26.7
   16    -2456.5916397869536922    -9.11e-04  1.84e-05  1.92e-03  3.23e-04    26.0
   17    -2456.5916409192536776    -1.13e-06  8.05e-06  6.08e-04  2.31e-04    19.4
   18    -2456.5916462367144959    -5.32e-06  8.14e-06  5.59e-04  1.41e-04    17.4
   19    -2456.5916469747485280    -7.38e-07  6.15e-06  5.80e-04  1.44e-04    16.5
   20    -2456.5916485837519758    -1.61e-06  1.74e-05  1.61e-03  8.34e-05    16.4
   21    -2456.5916502876675622    -1.70e-06  1.28e-05  1.51e-03  5.98e-05    18.3
   22    -2456.5916513162696901    -1.03e-06  2.13e-05  2.41e-03  6.20e-05    17.9
   23    -2456.5916518134513353    -4.97e-07  8.15e-06  1.06e-03  5.17e-05    17.6
   24    -2456.5916520449832205    -2.32e-07  9.95e-06  1.53e-03  2.70e-05    15.8
   25    -2456.5916521670437760    -1.22e-07  7.05e-06  6.35e-04  2.51e-05    14.2
   26    -2456.5916522142501890    -4.72e-08  1.20e-05  1.38e-03  2.15e-05    14.6
   27    -2456.5916523822456838    -1.68e-07  8.44e-06  5.99e-04  2.08e-05    16.7
   28    -2456.5916524972894877    -1.15e-07  8.72e-06  7.59e-04  1.81e-05    16.8
   29    -2456.5916525228089995    -2.55e-08  9.96e-06  1.51e-03  9.79e-06    15.4
   30    -2456.5916525930065291    -7.02e-08  1.55e-05  2.16e-03  5.80e-06    14.0
               *** Restarting incremental Fock matrix formation ***
[...]
168:   3121.68   0.002886   14.58  0.000288  (-0.015975  0.001602  0.005545)
169:   3126.36   0.002465   12.46  0.000246  (-0.007972 -0.012799 -0.004327)
170:   3126.40   0.002498   12.62  0.000249  (-0.001972 -0.002414  0.015480)
171:   3145.11   0.006479   32.74  0.000643  ( 0.014292  0.020202 -0.005525)
172:   3145.14   0.007352   37.16  0.000730  ( 0.002749  0.006401  0.026095)
173:   3146.66   0.014630   73.94  0.001451  (-0.036587  0.008747  0.005986)
174:   3146.86   0.001504    7.60  0.000149  (-0.003735 -0.004910 -0.010540)
175:   3205.53   0.000050    0.25  0.000005  (-0.000023 -0.002005  0.000943)
176:   3207.65   0.000082    0.42  0.000008  (-0.000697 -0.001158 -0.002482)
177:   3216.98   0.000354    1.79  0.000034  ( 0.000184  0.005272 -0.002558)
178:   3220.20   0.000044    0.22  0.000004  ( 0.000489  0.000790  0.001837)
179:   3225.84   0.000124    0.63  0.000012  ( 0.000449 -0.003095  0.001499)
180:   3229.05   0.001734    8.76  0.000168  ( 0.003094  0.005524  0.011291)
181:   3237.32   0.001228    6.21  0.000118  ( 0.001682  0.009413 -0.005195)
182:   3237.58   0.000103    0.52  0.000010  ( 0.000604  0.002903 -0.001048)

* The epsilon (eps) is given for a Dirac delta lineshape.
** The dipole moment derivative (T) already includes vibrational overlap.

The first frequency considered to be a vibration is 6
The total number of vibrations considered is 177


--------------------------
THERMOCHEMISTRY AT 298.15K
--------------------------

Temperature         ...   298.15 K
Pressure            ...     1.00 atm
Total Mass          ...   450.41 AMU
Quasi RRHO          ...     True
Cut-Off Frequency   ...     1.00 cm^-1

Throughout the following assumptions are being made:
  (1) The electronic state is orbitally nondegenerate
  (2) There are no thermally accessible electronically excited states
  (3) Hindered rotations indicated by low frequency modes are not
      treated as such but are treated as vibrations and this may
      cause some error
  (4) All equations used are the standard statistical mechanics
      equations for an ideal gas
  (5) All vibrations are strictly harmonic

freq.      25.85  E(vib)   ...       0.56 
freq.      27.46  E(vib)   ...       0.55 
freq.      30.60  E(vib)   ...       0.55 
freq.      32.02  E(vib)   ...       0.55 
freq.      40.47  E(vib)   ...       0.54 
freq.      44.92  E(vib)   ...       0.53 
freq.      47.70  E(vib)   ...       0.53 
freq.      50.43  E(vib)   ...       0.52 
freq.      89.25  E(vib)   ...       0.47 
freq.     100.57  E(vib)   ...       0.46 
freq.     107.24  E(vib)   ...       0.45 
freq.     120.39  E(vib)   ...       0.44 
freq.     120.90  E(vib)   ...       0.44 
freq.     129.12  E(vib)   ...       0.43 
freq.     141.87  E(vib)   ...       0.41 
freq.     144.27  E(vib)   ...       0.41 
freq.     150.49  E(vib)   ...       0.40 
freq.     163.77  E(vib)   ...       0.39 
freq.     176.19  E(vib)   ...       0.38 
freq.     177.64  E(vib)   ...       0.37 
freq.     196.79  E(vib)   ...       0.36 
freq.     197.66  E(vib)   ...       0.35 
freq.     206.08  E(vib)   ...       0.35 
freq.     243.16  E(vib)   ...       0.31 
freq.     249.71  E(vib)   ...       0.31 
freq.     266.69  E(vib)   ...       0.29 
freq.     273.42  E(vib)   ...       0.29 
freq.     276.89  E(vib)   ...       0.28 
freq.     280.71  E(vib)   ...       0.28 
freq.     292.49  E(vib)   ...       0.27 
freq.     301.96  E(vib)   ...       0.26 
freq.     307.49  E(vib)   ...       0.26 
freq.     338.52  E(vib)   ...       0.23 
freq.     355.12  E(vib)   ...       0.22 
freq.     377.99  E(vib)   ...       0.21 
freq.     394.56  E(vib)   ...       0.20 
freq.     438.34  E(vib)   ...       0.17 
freq.     448.43  E(vib)   ...       0.17 
freq.     479.59  E(vib)   ...       0.15 
freq.     484.67  E(vib)   ...       0.15 
freq.     487.71  E(vib)   ...       0.15 
freq.     499.43  E(vib)   ...       0.14 
freq.     525.15  E(vib)   ...       0.13 
freq.     525.87  E(vib)   ...       0.13 
freq.     535.65  E(vib)   ...       0.12 
freq.     536.93  E(vib)   ...       0.12 
freq.     557.15  E(vib)   ...       0.12 
freq.     559.10  E(vib)   ...       0.12 
freq.     559.76  E(vib)   ...       0.12 
freq.     567.21  E(vib)   ...       0.11 
freq.     571.02  E(vib)   ...       0.11 
freq.     586.36  E(vib)   ...       0.11 
freq.     586.79  E(vib)   ...       0.11 
freq.     647.42  E(vib)   ...       0.09 
freq.     662.76  E(vib)   ...       0.08 
freq.     684.19  E(vib)   ...       0.07 
freq.     735.37  E(vib)   ...       0.06 
freq.     736.77  E(vib)   ...       0.06 
freq.     739.83  E(vib)   ...       0.06 
freq.     749.80  E(vib)   ...       0.06 
freq.     766.35  E(vib)   ...       0.06 
freq.     788.11  E(vib)   ...       0.05 
freq.     810.23  E(vib)   ...       0.05 
freq.     860.56  E(vib)   ...       0.04 
freq.     860.65  E(vib)   ...       0.04 
freq.     874.99  E(vib)   ...       0.04 
freq.     880.63  E(vib)   ...       0.04 
freq.     884.31  E(vib)   ...       0.04 
freq.     884.35  E(vib)   ...       0.04 
freq.     946.12  E(vib)   ...       0.03 
freq.     947.12  E(vib)   ...       0.03 
freq.     951.57  E(vib)   ...       0.03 
freq.     961.73  E(vib)   ...       0.03 
freq.     962.46  E(vib)   ...       0.03 
freq.     962.77  E(vib)   ...       0.03 
freq.     979.54  E(vib)   ...       0.03 
freq.     980.91  E(vib)   ...       0.02 
freq.    1021.89  E(vib)   ...       0.02 
freq.    1022.05  E(vib)   ...       0.02 
freq.    1025.12  E(vib)   ...       0.02 
freq.    1025.63  E(vib)   ...       0.02 
freq.    1032.35  E(vib)   ...       0.02 
freq.    1034.29  E(vib)   ...       0.02 
freq.    1037.13  E(vib)   ...       0.02 
freq.    1037.96  E(vib)   ...       0.02 
freq.    1041.50  E(vib)   ...       0.02 
freq.    1046.99  E(vib)   ...       0.02 
freq.    1047.68  E(vib)   ...       0.02 
freq.    1048.48  E(vib)   ...       0.02 
freq.    1048.97  E(vib)   ...       0.02 
freq.    1054.87  E(vib)   ...       0.02 
freq.    1054.89  E(vib)   ...       0.02 
freq.    1058.19  E(vib)   ...       0.02 
freq.    1066.79  E(vib)   ...       0.02 
freq.    1083.22  E(vib)   ...       0.02 
freq.    1084.10  E(vib)   ...       0.02 
freq.    1134.70  E(vib)   ...       0.01 
freq.    1155.44  E(vib)   ...       0.01 
freq.    1176.87  E(vib)   ...       0.01 
freq.    1179.41  E(vib)   ...       0.01 
freq.    1185.89  E(vib)   ...       0.01 
freq.    1186.22  E(vib)   ...       0.01 
freq.    1249.59  E(vib)   ...       0.01 
freq.    1249.67  E(vib)   ...       0.01 
freq.    1282.96  E(vib)   ...       0.01 
freq.    1309.96  E(vib)   ...       0.01 
freq.    1312.78  E(vib)   ...       0.01 
freq.    1313.48  E(vib)   ...       0.01 
freq.    1336.75  E(vib)   ...       0.01 
freq.    1342.40  E(vib)   ...       0.01 
freq.    1343.55  E(vib)   ...       0.01 
freq.    1351.92  E(vib)   ...       0.01 
freq.    1367.76  E(vib)   ...       0.01 
freq.    1397.28  E(vib)   ...       0.00 
freq.    1397.28  E(vib)   ...       0.00 
freq.    1403.62  E(vib)   ...       0.00 
freq.    1403.67  E(vib)   ...       0.00 
freq.    1416.67  E(vib)   ...       0.00 
freq.    1418.20  E(vib)   ...       0.00 
freq.    1422.60  E(vib)   ...       0.00 
freq.    1432.55  E(vib)   ...       0.00 
freq.    1435.78  E(vib)   ...       0.00 
freq.    1436.15  E(vib)   ...       0.00 
freq.    1457.18  E(vib)   ...       0.00 
freq.    1457.24  E(vib)   ...       0.00 
freq.    1469.22  E(vib)   ...       0.00 
freq.    1473.99  E(vib)   ...       0.00 
freq.    1474.14  E(vib)   ...       0.00 
freq.    1476.16  E(vib)   ...       0.00 
freq.    1476.21  E(vib)   ...       0.00 
freq.    1484.81  E(vib)   ...       0.00 
freq.    1489.94  E(vib)   ...       0.00 
freq.    1490.20  E(vib)   ...       0.00 
freq.    1495.07  E(vib)   ...       0.00 
freq.    1495.63  E(vib)   ...       0.00 
freq.    1507.27  E(vib)   ...       0.00 
freq.    1514.19  E(vib)   ...       0.00 
freq.    1533.83  E(vib)   ...       0.00 
freq.    1537.50  E(vib)   ...       0.00 
freq.    1596.35  E(vib)   ...       0.00 
freq.    1612.96  E(vib)   ...       0.00 
freq.    1618.49  E(vib)   ...       0.00 
freq.    1618.72  E(vib)   ...       0.00 
freq.    1654.39  E(vib)   ...       0.00 
freq.    1654.89  E(vib)   ...       0.00 
freq.    1663.54  E(vib)   ...       0.00 
freq.    1671.00  E(vib)   ...       0.00 
freq.    2885.56  E(vib)   ...       0.00 
freq.    2888.45  E(vib)   ...       0.00 
freq.    3040.25  E(vib)   ...       0.00 
freq.    3040.37  E(vib)   ...       0.00 
freq.    3043.64  E(vib)   ...       0.00 
freq.    3043.65  E(vib)   ...       0.00 
freq.    3056.00  E(vib)   ...       0.00 
freq.    3056.92  E(vib)   ...       0.00 
freq.    3096.08  E(vib)   ...       0.00 
freq.    3097.33  E(vib)   ...       0.00 
freq.    3097.36  E(vib)   ...       0.00 
freq.    3098.30  E(vib)   ...       0.00 
freq.    3104.52  E(vib)   ...       0.00 
freq.    3104.57  E(vib)   ...       0.00 
freq.    3121.47  E(vib)   ...       0.00 
freq.    3121.68  E(vib)   ...       0.00 
freq.    3126.36  E(vib)   ...       0.00 
freq.    3126.40  E(vib)   ...       0.00 
freq.    3145.11  E(vib)   ...       0.00 
freq.    3145.14  E(vib)   ...       0.00 
freq.    3146.66  E(vib)   ...       0.00 
freq.    3146.86  E(vib)   ...       0.00 
freq.    3205.53  E(vib)   ...       0.00 
freq.    3207.65  E(vib)   ...       0.00 
freq.    3216.98  E(vib)   ...       0.00 
freq.    3220.20  E(vib)   ...       0.00 
freq.    3225.84  E(vib)   ...       0.00 
freq.    3229.05  E(vib)   ...       0.00 
freq.    3237.32  E(vib)   ...       0.00 
freq.    3237.58  E(vib)   ...       0.00 

------------
INNER ENERGY
------------

The inner energy is: U= E(el) + E(ZPE) + E(vib) + E(rot) + E(trans)
    E(el)   - is the total energy from the electronic structure calculation
              = E(kin-el) + E(nuc-el) + E(el-el) + E(nuc-nuc)
    E(ZPE)  - the the zero temperature vibrational energy from the frequency calculation
    E(vib)  - the the finite temperature correction to E(ZPE) due to population
              of excited vibrational states
    E(rot)  - is the rotational thermal energy
    E(trans)- is the translational thermal energy

Summary of contributions to the inner energy U:
Electronic energy                ...  -2457.00922222 Eh
Zero point energy                ...      0.50493106 Eh     316.85 kcal/mol
Thermal vibrational correction   ...      0.02829204 Eh      17.75 kcal/mol
Thermal rotational correction    ...      0.00141627 Eh       0.89 kcal/mol
Thermal translational correction ...      0.00141627 Eh       0.89 kcal/mol
-----------------------------------------------------------------------
Total thermal energy                  -2456.47316657 Eh


Summary of corrections to the electronic energy:
(perhaps to be used in another calculation)
Total thermal correction                  0.03112458 Eh      19.53 kcal/mol
Non-thermal (ZPE) correction              0.50493106 Eh     316.85 kcal/mol
-----------------------------------------------------------------------
Total correction                          0.53605565 Eh     336.38 kcal/mol


--------
ENTHALPY
--------

The enthalpy is H = U + kB*T
                kB is Boltzmann's constant
Total thermal energy              ...  -2456.47316657 Eh 
Thermal Enthalpy correction       ...      0.00094421 Eh       0.59 kcal/mol
-----------------------------------------------------------------------
Total Enthalpy                    ...  -2456.47222236 Eh


Note: Only C1 symmetry has been detected, increase convergence thresholds 
      if your molecule has a higher symmetry. Symmetry factor of 1.0 is   
      used for the rotational entropy correction. 
 

Note: Rotational entropy computed according to Herzberg 
Infrared and Raman Spectra, Chapter V,1, Van Nostrand Reinhold, 1945 
Point Group:  C1, Symmetry Number:   1  
Rotational constants in cm-1:     0.005990     0.004125     0.003496 

Vibrational entropy computed according to the QRRHO of S. Grimme
Chem.Eur.J. 2012 18 9955 using a reference frequency of 100.0 cm-1


-------
ENTROPY
-------

The entropy contributions are T*S = T*(S(el)+S(vib)+S(rot)+S(trans))
     S(el)   - electronic entropy
     S(vib)  - vibrational entropy
     S(rot)  - rotational entropy
     S(trans)- translational entropy
The entropies will be listed as multiplied by the temperature to get
units of energy

Electronic entropy                ...      0.00000000 Eh      0.00 kcal/mol
Vibrational entropy               ...      0.05077709 Eh     31.86 kcal/mol
Rotational entropy                ...      0.01718923 Eh     10.79 kcal/mol
Translational entropy             ...      0.02100272 Eh     13.18 kcal/mol
-----------------------------------------------------------------------
Final entropy term                ...      0.08896904 Eh     55.83 kcal/mol

In case the symmetry of your molecule has not been determined correctly
or in case you have a reason to use a different symmetry number we print 
out the resulting rotational entropy values for sn=1,12:

 non-linear molecules -----------------------------------
|  sn= 1 | S(rot)=       0.01718923 Eh     10.79 kcal/mol|
|  sn= 2 | S(rot)=       0.01653477 Eh     10.38 kcal/mol|
|  sn= 3 | S(rot)=       0.01615194 Eh     10.14 kcal/mol|
|  sn= 4 | S(rot)=       0.01588031 Eh      9.97 kcal/mol|
|  sn= 5 | S(rot)=       0.01566962 Eh      9.83 kcal/mol|
|  sn= 6 | S(rot)=       0.01549748 Eh      9.72 kcal/mol|
|  sn= 7 | S(rot)=       0.01535193 Eh      9.63 kcal/mol|
|  sn= 8 | S(rot)=       0.01522586 Eh      9.55 kcal/mol|
|  sn= 9 | S(rot)=       0.01511465 Eh      9.48 kcal/mol|
|  sn=10 | S(rot)=       0.01501517 Eh      9.42 kcal/mol|
|  sn=11 | S(rot)=       0.01492518 Eh      9.37 kcal/mol|
|  sn=12 | S(rot)=       0.01484302 Eh      9.31 kcal/mol|
 linear molecules ---------------------------------------
|  Dinfh | S(rot)=       0.01066633 Eh      6.69 kcal/mol|
|  Cinfv | S(rot)=       0.01132079 Eh      7.10 kcal/mol|
 --------------------------------------------------------


-------------------
GIBBS FREE ENERGY
-------------------

The Gibbs free energy is G = H - T*S

Total enthalpy                    ...  -2456.47222236 Eh 
Total entropy correction          ...     -0.08896904 Eh    -55.83 kcal/mol
-----------------------------------------------------------------------
Final Gibbs free energy         ...  -2456.56119140 Eh

For completeness - the Gibbs free energy minus the electronic energy
G-E(el)                           ...      0.44803082 Eh    281.14 kcal/mol


Maximum memory used throughout the entire PROP-calculation: 1085.4 MB

--------------------------------
SUGGESTED CITATIONS FOR THIS RUN
--------------------------------

Below you find a list of papers that are relevant to this ORCA run
We neither can nor want to force you to cite these papers, but we appreciate if you do
You receive ORCA, which is the product of decades of hard work by many enthusiastic individuals, for free
The only thing we kindly ask in return is that you cite our papers,
We deeply appreciate it, if you show your appreciation for ORCA by not just citing the generic ORCA reference.

Please note that relegating all ORCA citations to the supporting information does *not* help us.
SI sections are not indexed - citations you put there will not count into any citation statistics
But we need these citations in order to attract the funding resources that allow us to do what we are doing

Therefore, if you are a happy ORCA user, please consider citing a few of the papers listed below in the main body of your paper

In addition to the list printed below, the program has created the file RUWZUF-S5.bibtex that contains the list in bibtex format
You can import this file easily into all common literature databanks and citation aid programs


List of essential papers. We consider these as the minimum necessary citations

  1. Neese,F.
     Software update: the ORCA program system, version 5.0
     WIRES Comput. Molec. Sci., 2022 12(1)e1606
     doi.org/10.1002/wcms.1606

List of papers to cite with high priority. The work reported in these papers was absolutely
necessary for this run to complete.
Our perspective: the developers of density functionals and basis sets usually get cited in chemistry papers
Good! But without the algorithms to do something with them, the functionals or basis sets would not do anything.
Hence, in our opinion, the algorithm design and method developments papers are equally worthy of getting cited

  1. Neese,F.
     An improvement of the resolution of the identity approximation for the formation of the Coulomb matrix
     J. Comp. Chem., 2003 24(14)1740-1747
     doi.org/10.1002/jcc.10318
  2. Neese,F.; Wennmohs,F.; Hansen,A.; Becker,U.
     Efficient, approximate and parallel Hartree-Fock and hybrid DFT calculations. A 'chain-of-spheres' algorithm for the Hartree-Fock exchange
     Chem. Phys., 2009 356(1-3)98-109
     doi.org/10.1016/j.chemphys.2008.10.036
  3. Bykov,D.; Petrenko,T.; Izsak,R.; Kossmann,S.; Becker,U.; Valeev,E.; Neese,F.
     Efficient implementation of the analytic second derivatives of Hartree-Fock and hybrid DFT energies: a detailed analysis of different approximations
     Molec. Phys., 2015 113 1961-1977
     doi.org/10.1080/00268976.2015.1025114
  4. Helmich-Paris,B.; de Souza,B.; Neese,F.; Izsák,R.
     An improved chain of spheres for exchange algorithm
     J. Chem. Phys., 2021 155 104109
     doi.org/doi: 10.1063/5.0058766.
  5. Neese,F.
     The SHARK Integral Generation and Digestion System
     J. Comp. Chem., 2022  1-16
     doi.org/10.1002/jcc.26942

List of suggested additional citations. These are papers that are important in the 'surrounding' of 
of this run, or papers that preceded the highly important papers. If you like your results we are grateful for a citation.

  1. Izsak,R.; Neese,F.
     An overlap fitted chain of spheres exchange method
     J. Chem. Phys., 2011 135 144105
     doi.org/10.1063/1.3646921
  2. Izsak,R.; Hansen,A.; Neese,F.
     The resolution of identity and chain of spheres approximations for the LPNO-CCSD singles Fock term
     Molec. Phys., 2012 110 2413-2417
     doi.org/10.1080/00268976.2012.687466
  3. Neese,F.
     The ORCA program system
     WIRES Comput. Molec. Sci., 2012 2(1)73-78
     doi.org/10.1002/wcms.81
  4. Izsak,R.; Neese,F.; Klopper,W.
     Robust fitting techniques in the chain of spheres approximation to the Fock exchange: The role of the complementary space
     J. Chem. Phys., 2013 139 
     doi.org/10.1063/1.4819264
  5. Neese,F.
     Software update: the ORCA program system, version 4.0
     WIRES Comput. Molec. Sci., 2018 8(1)1-6
     doi.org/10.1002/wcms.1327
  6. Neese,F.; Wennmohs,F.; Becker,U.; Riplinger,C.
     The ORCA quantum chemistry program package
     J. Chem. Phys., 2020 152 Art. No. L224108
     doi.org/10.1063/5.0004608

List of optional additional citations

  1. Neese,F.
     Approximate second-order SCF convergence for spin unrestricted wavefunctions
     Chem. Phys. Lett., 2000 325(1-3)93-98
     doi.org/10.1016/s0009-2614(00)00662-x

Timings for individual modules:

Sum of individual times          ...    27464.228 sec (= 457.737 min)
Startup calculation              ...      599.136 sec (=   9.986 min)   2.2 %
SCF iterations                   ...    13426.259 sec (= 223.771 min)  48.9 %
Property integrals               ...     3656.172 sec (=  60.936 min)  13.3 %
SCF Response                     ...     5482.255 sec (=  91.371 min)  20.0 %
Property calculations            ...     1254.839 sec (=  20.914 min)   4.6 %
SCF Gradient evaluation          ...     3043.541 sec (=  50.726 min)  11.1 %
Geometry relaxation              ...        2.026 sec (=   0.034 min)   0.0 %
                             ****ORCA TERMINATED NORMALLY****
TOTAL RUN TIME: 0 days 7 hours 39 minutes 22 seconds 344 msec
