
                                 *****************
                                 * O   R   C   A *
                                 *****************

                                            #,                                       
                                            ###                                      
                                            ####                                     
                                            #####                                    
                                            ######                                   
                                           ########,                                 
                                     ,,################,,,,,                         
                               ,,#################################,,                 
                          ,,##########################################,,             
                       ,#########################################, ''#####,          
                    ,#############################################,,   '####,        
                  ,##################################################,,,,####,       
                ,###########''''           ''''###############################       
              ,#####''   ,,,,##########,,,,          '''####'''          '####       
            ,##' ,,,,###########################,,,                        '##       
           ' ,,###''''                  '''############,,,                           
         ,,##''                                '''############,,,,        ,,,,,,###''
      ,#''                                            '''#######################'''  
     '                                                          ''''####''''         
             ,#######,   #######,   ,#######,      ##                                
            ,#'     '#,  ##    ##  ,#'     '#,    #''#        ,####,   ,####,        
            ##       ##  ##   ,#'  ##            #'  '#       #'       #'  '#        
            ##       ##  #######   ##           ,######,      #####,   #    #        
            '#,     ,#'  ##    ##  '#,     ,#' ,#      #,     #,   #   #,  ,#        
             '#######'   ##     ##  '#######'  #'      '#     '####' # '####'        



                #########################################################
                #                        -***-                          #
                #          Department of theory and spectroscopy        #
                #                                                       #
                #                      Frank Neese                      #
                #                                                       #
                #     Directorship, Architecture, Infrastructure        #
                #                    SHARK, DRIVERS                     #
                #        Core code/Algorithms in most modules           #
                #                                                       #
                #        Max Planck Institute fuer Kohlenforschung      #
                #                Kaiser Wilhelm Platz 1                 #
                #                 D-45470 Muelheim/Ruhr                 #
                #                      Germany                          #
                #                                                       #
                #                  All rights reserved                  #
                #                        -***-                          #
                #########################################################


                         Program Version 6.0.1  -  RELEASE   -


 With contributions from (in alphabetic order):
[Max-Planck-Institut fuer Kohlenforschung]                               
  Daniel Aravena         : Magnetic Suceptibility                        
  Michael Atanasov       : Ab Initio Ligand Field Theory (pilot matlab implementation)
  Alexander A. Auer      : GIAO ZORA, VPT2 properties, NMR spectrum      
  Ute Becker             : All parallelization in ORCA, NUMFREQ, NUMCALC 
  Giovanni Bistoni       : ED, misc. LED, open-shell LED, HFLD           
  Martin Brehm           : Molecular dynamics                            
  Dmytro Bykov           : pre 5.0 version of the SCF Hessian            
  Marcos Casanova-Páez   : Triplet and SCS-CIS(D). UHF-(DLPNO)-IP/EA/STEOM-CCSD. UHF-CVS-IP/STEOM-CCSD   
  Vijay G. Chilkuri      : MRCI spin determinant printing, contributions to CSF-ICE 
  Pauline Colinet        : FMM embedding                                 
  Dipayan Datta          : RHF DLPNO-CCSD density                        
  Achintya Kumar Dutta   : EOM-CC, STEOM-CC                              
  Nicolas Foglia         : Exact transition moments, OPA infrastructure, MCD improvements    
  Dmitry Ganyushin       : Spin-Orbit,Spin-Spin,Magnetic field MRCI      
  Miquel Garcia-Rates    : C-PCM and meta-GGA Hessian, CCSD/C-PCM, Gaussian charge scheme 
  Tiago L. C. Gouveia    : GS-ROHF, GS-ROCIS                             
  Yang Guo               : DLPNO-NEVPT2, F12-NEVPT2, CIM, IAO-localization        
  Andreas Hansen         : Spin unrestricted coupled pair/coupled cluster methods 
  Ingolf Harden          : AUTO-CI MPn and infrastructure                
  Benjamin Helmich-Paris : MC-RPA, TRAH-(SCF,CASSCF), AVAS, COSX integrals, SCF dyn. polar. 
  Lee Huntington         : MR-EOM, pCC                                   
  Robert Izsak           : Overlap fitted RIJCOSX, COSX-SCS-MP3, EOM     
  Riya Kayal             : Wick's Theorem for AUTO-CI, AUTO-CI UHF-CCSDT 
  Emily Kempfer          : AUTO-CI, RHF CISDT and CCSDT                  
  Christian Kollmar      : KDIIS, OOCD, Brueckner-CCSD(T), CCSD density, CASPT2, CASPT2-K, improved NEVPT2 
  Axel Koslowski         : Symmetry handling                             
  Simone Kossmann        : meta-GGA functionals, TD-DFT gradient, OOMP2, (MP2 Hessian; deprecated post 5.0) 
  Lucas Lang             : DCDCAS                                        
  Marvin Lechner         : AUTO-CI (C++ implementation), FIC-MRCC        
  Spencer Leger          : CASSCF response                               
  Dagmar Lenk            : GEPOL surface, SMD, ORCA-2-JSON               
  Dimitrios Liakos       : Extrapolation schemes; Compound Job, initial MDCI parallelization 
  Dimitrios Manganas     : Further ROCIS development; embedding schemes. LFT, Crystal Embedding 
  Dimitrios Pantazis     : SARC Basis sets                               
  Anastasios Papadopoulos: AUTO-CI, single reference methods and gradients 
  Taras Petrenko         : pre 6.0 DFT Hessian and TD-DFT gradient, (ASA, deprecated), ECA, 1-Electron XAS/XES, NRVS 
  Peter Pinski           : DLPNO-MP2, DLPNO-MP2 Gradient                 
  Christoph Reimann      : Effective Core Potentials                     
  Marius Retegan         : Local ZFS, SOC                                
  Christoph Riplinger    : Optimizer, TS searches, QM/MM, DLPNO-CCSD(T), (RO)-DLPNO pert. Triples 
  Michael Roemelt        : Original ROCIS implementation                 
  Masaaki Saitow         : Open-shell DLPNO-CCSD energy and density      
  Barbara Sandhoefer     : DKH picture change effects                    
  Kantharuban Sivalingam : CASSCF convergence/infrastructure, NEVPT2 and variants, FIC-MRCI 
  Bernardo de Souza      : ESD, SOC TD-DFT                               
  Georgi L. Stoychev     : AutoAux, RI-MP2 NMR, DLPNO-MP2 response, X2C  
  Van Anh Tran           : RI-MP2 g-tensors                              
  Willem Van den Heuvel  : Paramagnetic NMR                              
  Zikuan Wang            : NOTCH, Electric field optimization            
  Frank Wennmohs         : Technical directorship and infrastructure     
  Hang Xu                : AUTO-CI-Response properties                   
                                                                         
[FACCTs GmbH]                                                            
  Markus Bursch, Miquel Garcia-Rates, Christoph Riplinger, Bernardo de Souza, Georgi L. Stoychev 
                                                                 
  APM, Basis sets (HGBS, AHGBS, def-TZVP (Ac-Lr), def2-XVPD (La-Lu)), CI-OPT, improved COSX, DLPNO-Multilevel,           
  DOCKER, DRACO, updates on ESD, GOAT, IRC, LR-CPCM, MBIS, meta-GGA TD-DFT gradient, ML-optimized integration grids, 
  MM, NACMEs, nearIR, NEB, NEB-TS, NL-DFT gradient (VV10), 2- and 3-layer-ONIOM, interface openCOSMO-RS, QMMM,   
  Crystal-QMMM, SF, symmetry and pop. for TD-DFT, r2SCAN hybrids, SOLVATOR                                   
                                                                         
[Other institutions]                                                     
  V. Asgeirsson          : NEB                                           
  Christoph Bannwarth    : sTDA-DFT, sTD-DFT, PBEh-3c, B97-3c, D3        
  Sebastian Ehlert       : rSCAN, r2SCAN, r2SCAN-3c, D4, dhf basis sets  
  Marvin Friede          : D4 for Fr, Ra, Ac-Lr                          
  Lars Goerigk           : TD-DFT with DH, B97 family of functionals     
  Stefan Grimme          : VdW corrections, initial TS optimization, DFT functionals, gCP, sTDA/sTD-DF 
  Waldemar Hujo          : DFT-NL                                        
  H. Jonsson             : NEB                                           
  Holger Kruse           : gCP                                           
  Marcel Mueller         : wB97X-3c, vDZP basis set                      
  Hagen Neugebauer       : wr2SCAN                                       
  Tobias Risthaus        : range-separated hybrid DFT                    
  Lukas Wittmann         : regularized MP2, r2SCAN double-hybrids, wr2SCAN        
                                                                         
We gratefully acknowledge several colleagues who have allowed us to      
interface, adapt or use parts of their codes:                            
  Ed Valeev, F. Pavosevic, A. Kumar             : LibInt (2-el integral package), F12 methods 
  Garnet Chan, S. Sharma, J. Yang, R. Olivares  : DMRG                   
  Ulf Ekstrom                                   : XCFun DFT Library      
  Mihaly Kallay                                 : mrcc  (arbitrary order and MRCC methods)
  Frank Weinhold                                : gennbo (NPA and NBO analysis)           
  Simon Mueller                                 : openCOSMO-RS                            
  Christopher J. Cramer and Donald G. Truhlar   : smd solvation model                     
  S Lehtola, MJT Oliveira, MAL Marques          : LibXC Library                           
  Liviu Ungur et al                             : ANISO software                          


 Your calculation uses the libint2 library for the computation of 2-el integrals
 For citations please refer to: http://libint.valeyev.net

 Your ORCA version has been built with support for libXC version: 6.2.2
 For citations please refer to: https://libxc.gitlab.io

 This ORCA versions uses:
   CBLAS   interface :  Fast vector & matrix operations
   LAPACKE interface :  Fast linear algebra routines
   SCALAPACK package :  Parallel linear algebra routines
   Shared memory     :  Shared parallel matrices
   BLAS/LAPACK       :  OpenBLAS 0.3.27  USE64BITINT DYNAMIC_ARCH NO_AFFINITY Cooperlake SINGLE_THREADED
        Core in use  :  Cooperlake
   Copyright (c) 2011-2014, The OpenBLAS Project


NOTE: MaxCore=3600 MB was set to SCF,MP2,MDCI,CIPSI,MRCI and CIS
      => If you want to overwrite this, your respective input block should be placed after the MaxCore statement
Warning: RI is on but no J-basis has been assigned. Assigning Def2/J (nothing to worry about!)
================================================================================

----- Orbital basis set information -----
Your calculation utilizes the basis: def2-TZVP
   F. Weigend and R. Ahlrichs, Phys. Chem. Chem. Phys. 7, 3297 (2005).

----- AuxJ basis set information -----
Your calculation utilizes the auxiliary basis: def2/J
   F. Weigend, Phys. Chem. Chem. Phys. 8, 1057 (2006).

================================================================================
                                        WARNINGS
                       Please study these warnings very carefully!
================================================================================


WARNING: Geometry Optimization
  ===> : Switching off AutoStart
         For restart on a previous wavefunction, please use MOREAD

================================================================================
                                       INPUT FILE
================================================================================
NAME = SUVROS-S5.inp
|  1> ! PBE0 def2-TZVP  Opt Freq DEFGRID3
|  2> 
|  3> %maxcore 3600
|  4> 
|  5> %pal
|  6>     nprocs 16
|  7> end
|  8> 
|  9> *xyz 0 1
| 10> Fe 0.2675 10.3769 14.9114
| 11> Cl 1.2807 9.4401 13.1415
| 12> Cl 1.3615 10.7775 16.8286
| 13> S 2.1195 14.267 12.2529
| 14> O -1.6619 6.8826 15.9833
| 15> N -1.7643 9.6399 15.1265
| 16> N -0.6989 12.0987 14.1095
| 17> C -2.0245 8.4982 14.2082
| 18> H -1.7417 8.7328 13.3116
| 19> H -2.9765 8.3121 14.1838
| 20> C -1.2805 7.2652 14.665
| 21> H -1.4638 6.5358 14.0526
| 22> H -0.3269 7.4409 14.6441
| 23> C -1.3783 7.9456 16.8809
| 24> H -0.4248 8.1251 16.8765
| 25> H -1.6294 7.6832 17.781
| 26> C -2.1262 9.2047 16.5007
| 27> H -3.0813 9.0409 16.5474
| 28> H -1.912 9.9099 17.1297
| 29> C -2.6335 10.7838 14.7322
| 30> H -2.7767 11.359 15.5002
| 31> H -3.496 10.4496 14.4416
| 32> C -2.0027 11.5811 13.6163
| 33> H -1.8657 11.0169 12.8398
| 34> H -2.5812 12.3173 13.3645
| 35> C 0.0148 12.8502 13.0699
| 36> H -0.5654 13.5412 12.7132
| 37> H 0.2545 12.2514 12.3449
| 38> C 1.2752 13.4893 13.6416
| 39> H 1.8424 12.8166 14.0503
| 40> H 1.0464 14.151 14.3127
| 41> C 3.555 15.0026 12.9606
| 42> C 4.3871 15.6683 12.0665
| 43> H 4.1756 15.6808 11.162
| 44> C 5.524 16.3106 12.5116
| 45> H 6.0699 16.7602 11.9077
| 46> C 5.852 16.2872 13.8545
| 47> H 6.6165 16.7219 14.1562
| 48> C 5.0424 15.6158 14.7426
| 49> H 5.2681 15.5958 15.6452
| 50> C 3.8928 14.9665 14.309
| 51> H 3.3547 14.5122 14.9157
| 52> H -0.8592 12.7019 14.7569
| 53> *
| 54> 
| 55>                          ****END OF INPUT****
================================================================================

                       *****************************
                       * Geometry Optimization Run *
                       *****************************

Geometry optimization settings:
Update method            Update   .... BFGS
Choice of coordinates    CoordSys .... (2022) Redundant Internals
Initial Hessian          InHess   .... Almloef's Model
Max. no of cycles        MaxIter  .... 129

Convergence Tolerances:
Energy Change            TolE     ....  5.0000e-06 Eh
Max. Gradient            TolMAXG  ....  3.0000e-04 Eh/bohr
RMS Gradient             TolRMSG  ....  1.0000e-04 Eh/bohr
Max. Displacement        TolMAXD  ....  4.0000e-03 bohr
RMS Displacement         TolRMSD  ....  2.0000e-03 bohr
Strict Convergence                .... False

------------------------------------------------------------------------------
                        ORCA OPTIMIZATION COORDINATE SETUP
------------------------------------------------------------------------------

The optimization will be done in redundant internal coordinates (2022)
Making redundant internal coordinates   ...  (2022 redundants) done
Evaluating the initial hessian          ...  (Almloef) done
Evaluating the coordinates              ...  done
Calculating the B-matrix                .... done
Calculating the G-matrix                .... done
Diagonalizing the G-matrix              .... done
Small eigenvalue found = 1.494e-03
Small eigenvalue found = 4.348e-03
Small eigenvalue found = 1.069e-02
Small eigenvalue found = 1.485e-02
Small eigenvalue found = 2.500e-02
The first mode is                       ....  109
The number of degrees of freedom        ....  123

    -----------------------------------------------------------------
                    Redundant Internal Coordinates


    -----------------------------------------------------------------
         Definition                    Initial Value    Approx d2E/dq
    -----------------------------------------------------------------
      1. B(Cl  1,Fe  0)                  2.2443         0.615089   
      2. B(Cl  2,Fe  0)                  2.2434         0.616976   
      3. B(N   5,Fe  0)                  2.1720         0.320144   
      4. B(N   6,Fe  0)                  2.1311         0.372074   
      5. B(C   7,N   5)                  1.4881         0.390260   
      6. B(H   8,C   7)                  0.9690         0.561717   
      7. B(H   9,C   7)                  0.9703         0.558927   
      8. B(C  10,C   7)                  1.5108         0.400888   
      9. B(C  10,O   4)                  1.4247         0.492626   
     10. B(H  11,C  10)                  0.9699         0.559855   
     11. B(H  12,C  10)                  0.9699         0.559851   
     12. B(C  13,O   4)                  1.4199         0.501407   
     13. B(H  14,C  13)                  0.9703         0.559066   
     14. B(H  15,C  13)                  0.9706         0.558343   
     15. B(C  16,N   5)                  1.4862         0.392999   
     16. B(C  16,C  13)                  1.5130         0.397615   
     17. B(H  17,C  16)                  0.9702         0.559250   
     18. B(H  18,C  16)                  0.9689         0.561796   
     19. B(C  19,N   5)                  1.4898         0.387846   
     20. B(H  20,C  19)                  0.9701         0.559295   
     21. B(H  21,C  19)                  0.9696         0.560505   
     22. B(C  22,C  19)                  1.5096         0.402678   
     23. B(C  22,N   6)                  1.4870         0.391906   
     24. B(H  23,C  22)                  0.9696         0.560506   
     25. B(H  24,C  22)                  0.9696         0.560492   
     26. B(C  25,N   6)                  1.4680         0.420248   
     27. B(H  26,C  25)                  0.9702         0.559123   
     28. B(H  27,C  25)                  0.9704         0.558811   
     29. B(C  28,C  25)                  1.5244         0.381293   
     30. B(C  28,S   3)                  1.8017         0.371240   
     31. B(H  29,C  28)                  0.9702         0.559198   
     32. B(H  30,C  28)                  0.9698         0.559945   
     33. B(C  31,S   3)                  1.7614         0.430454   
     34. B(C  32,C  31)                  1.3910         0.622439   
     35. B(H  33,C  32)                  0.9290         0.650603   
     36. B(C  34,C  32)                  1.3796         0.649208   
     37. B(H  35,C  34)                  0.9300         0.648250   
     38. B(C  36,C  34)                  1.3826         0.642075   
     39. B(H  37,C  36)                  0.9298         0.648756   
     40. B(C  38,C  36)                  1.3766         0.656389   
     41. B(H  39,C  38)                  0.9306         0.646735   
     42. B(C  40,C  38)                  1.3897         0.625557   
     43. B(C  40,C  31)                  1.3905         0.623564   
     44. B(H  41,C  40)                  0.9295         0.649297   
     45. B(H  42,N   6)                  0.8993         0.649934   
     46. A(Cl  2,Fe  0,N   6)          113.4802         0.513045   
     47. A(N   5,Fe  0,N   6)           83.5239         0.437955   
     48. A(Cl  1,Fe  0,Cl  2)          121.8932         0.586710   
     49. A(Cl  1,Fe  0,N   6)          104.1952         0.512751   
     50. A(Cl  2,Fe  0,N   5)          115.6025         0.498860   
     51. A(Cl  1,Fe  0,N   5)          111.0254         0.498576   
     52. A(C  28,S   3,C  31)          104.6248         0.413007   
     53. A(C  10,O   4,C  13)          109.2951         0.396080   
     54. A(Fe  0,N   5,C  16)          114.7536         0.394172   
     55. A(Fe  0,N   5,C  19)          105.0123         0.393262   
     56. A(C   7,N   5,C  19)          108.8897         0.363860   
     57. A(C   7,N   5,C  16)          107.6588         0.364682   
     58. A(Fe  0,N   5,C   7)          111.2712         0.393689   
     59. A(C  16,N   5,C  19)          109.1165         0.364295   
     60. A(C  22,N   6,C  25)          111.6912         0.369163   
     61. A(C  22,N   6,H  42)          108.4198         0.355520   
     62. A(C  25,N   6,H  42)          104.6622         0.359765   
     63. A(Fe  0,N   6,C  25)          117.3629         0.409561   
     64. A(Fe  0,N   6,C  22)          103.9566         0.404535   
     65. A(Fe  0,N   6,H  42)          110.6025         0.393950   
     66. A(H   9,C   7,C  10)          109.5259         0.353124   
     67. A(H   8,C   7,C  10)          109.4901         0.353422   
     68. A(N   5,C   7,C  10)          110.6989         0.368222   
     69. A(H   8,C   7,H   9)          108.0298         0.335562   
     70. A(N   5,C   7,H   9)          109.5247         0.349363   
     71. A(N   5,C   7,H   8)          109.5250         0.349656   
     72. A(O   4,C  10,H  11)          109.3725         0.363561   
     73. A(O   4,C  10,C   7)          111.5377         0.383339   
     74. A(C   7,C  10,H  12)          109.2584         0.353223   
     75. A(O   4,C  10,H  12)          109.3782         0.363560   
     76. A(H  11,C  10,H  12)          107.9662         0.335469   
     77. A(C   7,C  10,H  11)          109.2559         0.353223   
     78. A(H  15,C  13,C  16)          109.2764         0.352572   
     79. A(H  14,C  13,C  16)          109.3099         0.352649   
     80. A(O   4,C  13,C  16)          111.4337         0.383970   
     81. A(H  14,C  13,H  15)          107.9661         0.335240   
     82. A(O   4,C  13,H  15)          109.4007         0.364492   
     83. A(O   4,C  13,H  14)          109.3853         0.364573   
     84. A(C  13,C  16,H  17)          109.5138         0.352669   
     85. A(N   5,C  16,H  17)          109.4918         0.349809   
     86. A(N   5,C  16,C  13)          110.8341         0.368146   
     87. A(H  17,C  16,H  18)          108.0151         0.335602   
     88. A(C  13,C  16,H  18)          109.4670         0.352940   
     89. A(N   5,C  16,H  18)          109.4687         0.350077   
     90. A(H  21,C  19,C  22)          109.4034         0.353559   
     91. A(H  20,C  19,C  22)          109.4946         0.353430   
     92. A(N   5,C  19,C  22)          110.9395         0.368112   
     93. A(H  20,C  19,H  21)          108.0792         0.335478   
     94. A(N   5,C  19,H  20)          109.3806         0.349036   
     95. A(N   5,C  19,H  21)          109.4921         0.349163   
     96. A(H  23,C  22,H  24)          108.5523         0.335597   
     97. A(C  19,C  22,H  24)          110.1019         0.353558   
     98. A(N   6,C  22,H  24)          110.1814         0.349776   
     99. A(C  19,C  22,H  23)          110.1038         0.353559   
    100. A(N   6,C  22,H  23)          110.1392         0.349777   
    101. A(N   6,C  22,C  19)          107.7616         0.368770   
    102. A(H  27,C  25,C  28)          109.5519         0.350133   
    103. A(H  26,C  25,C  28)          109.4948         0.350166   
    104. A(N   6,C  25,C  28)          110.5492         0.369738   
    105. A(H  26,C  25,H  27)          108.2112         0.335292   
    106. A(N   6,C  25,H  27)          109.4695         0.353749   
    107. A(N   6,C  25,H  26)          109.5255         0.353783   
    108. A(C  25,C  28,H  30)          110.5174         0.350253   
    109. A(S   3,C  28,H  30)          110.4508         0.366908   
    110. A(C  25,C  28,H  29)          110.5279         0.350174   
    111. A(S   3,C  28,H  29)          110.4884         0.366824   
    112. A(S   3,C  28,C  25)          106.2215         0.383556   
    113. A(H  29,C  28,H  30)          108.6325         0.335412   
    114. A(C  32,C  31,C  40)          119.3663         0.434821   
    115. A(S   3,C  31,C  40)          125.2215         0.429459   
    116. A(S   3,C  31,C  32)          115.4114         0.429320   
    117. A(H  33,C  32,C  34)          119.7022         0.393876   
    118. A(C  31,C  32,C  34)          120.5574         0.437990   
    119. A(C  31,C  32,H  33)          119.7405         0.390984   
    120. A(H  35,C  34,C  36)          119.9777         0.392865   
    121. A(C  32,C  34,C  36)          120.0667         0.440452   
    122. A(C  32,C  34,H  35)          119.9556         0.393626   
    123. A(H  37,C  36,C  38)          120.1510         0.394440   
    124. A(C  34,C  36,C  38)          119.6940         0.441328   
    125. A(C  34,C  36,H  37)          120.1549         0.392919   
    126. A(H  39,C  38,C  40)          119.5523         0.390918   
    127. A(C  36,C  38,C  40)          120.8714         0.439256   
    128. A(C  36,C  38,H  39)          119.5762         0.394224   
    129. A(C  38,C  40,H  41)          120.2381         0.391189   
    130. A(C  31,C  40,H  41)          120.3298         0.390971   
    131. A(C  31,C  40,C  38)          119.4322         0.435212   
    132. D(C   7,N   5,Fe  0,N   6)    112.1623         0.002008   
    133. D(C   7,N   5,Fe  0,Cl  2)   -134.8672         0.002008   
    134. D(C  16,N   5,Fe  0,Cl  1)    131.9530         0.002008   
    135. D(C   7,N   5,Fe  0,Cl  1)      9.4078         0.002008   
    136. D(C  16,N   5,Fe  0,Cl  2)    -12.3220         0.002008   
    137. D(C  16,N   5,Fe  0,N   6)   -125.2925         0.002008   
    138. D(C  22,N   6,Fe  0,Cl  1)     85.7228         0.002183   
    139. D(C  25,N   6,Fe  0,Cl  2)     96.5970         0.002183   
    140. D(C  25,N   6,Fe  0,N   5)   -148.2618         0.002183   
    141. D(C  22,N   6,Fe  0,Cl  2)   -139.5237         0.002183   
    142. D(C  25,N   6,Fe  0,Cl  1)    -38.1566         0.002183   
    143. D(C  22,N   6,Fe  0,N   5)    -24.3824         0.002183   
    144. D(H   8,C   7,N   5,C  19)     65.5758         0.013930   
    145. D(H   8,C   7,N   5,Fe  0)    -49.7012         0.013930   
    146. D(H   8,C   7,N   5,C  16)   -176.2483         0.013930   
    147. D(H   9,C   7,N   5,C  16)     65.4459         0.013930   
    148. D(H   9,C   7,N   5,C  19)    -52.7300         0.013930   
    149. D(H   9,C   7,N   5,Fe  0)   -168.0070         0.013930   
    150. D(H  11,C  10,C   7,H   8)    -59.0984         0.012749   
    151. D(O   4,C  10,C   7,H   8)    179.8632         0.012749   
    152. D(O   4,C  10,C   7,H   9)    -61.8510         0.012749   
    153. D(H  11,C  10,C   7,N   5)   -179.9440         0.012749   
    154. D(H  12,C  10,O   4,C  13)     61.2670         0.019169   
    155. D(O   4,C  10,C   7,N   5)     59.0176         0.012749   
    156. D(C   7,C  10,O   4,C  13)    -59.7104         0.019169   
    157. D(H  11,C  10,C   7,H   9)     59.1873         0.012749   
    158. D(H  11,C  10,O   4,C  13)    179.3193         0.019169   
    159. D(C  16,C  13,O   4,C  10)     59.6122         0.019879   
    160. D(H  14,C  13,O   4,C  10)    -61.3672         0.019879   
    161. D(H  15,C  13,O   4,C  10)   -179.4401         0.019879   
    162. D(C  13,C  16,N   5,Fe  0)    -69.0069         0.014122   
    163. D(H  17,C  16,C  13,H  15)    -59.2249         0.012549   
    164. D(H  17,C  16,C  13,H  14)   -177.1811         0.012549   
    165. D(H  17,C  16,C  13,O   4)     61.7954         0.012549   
    166. D(N   5,C  16,C  13,H  15)    179.8688         0.012549   
    167. D(N   5,C  16,C  13,H  14)     61.9127         0.012549   
    168. D(H  17,C  16,N   5,C  19)     52.5773         0.014122   
    169. D(H  17,C  16,N   5,C   7)    -65.4523         0.014122   
    170. D(H  17,C  16,N   5,Fe  0)    170.0739         0.014122   
    171. D(N   5,C  16,C  13,O   4)    -59.1108         0.012549   
    172. D(C  13,C  16,N   5,C  19)    173.4965         0.014122   
    173. D(C  13,C  16,N   5,C   7)     55.4669         0.014122   
    174. D(H  21,C  19,N   5,C  16)    -80.3248         0.013762   
    175. D(H  21,C  19,N   5,C   7)     36.9287         0.013762   
    176. D(H  21,C  19,N   5,Fe  0)    156.1869         0.013762   
    177. D(H  20,C  19,N   5,C  16)     37.9362         0.013762   
    178. D(H  20,C  19,N   5,C   7)    155.1897         0.013762   
    179. D(H  20,C  19,N   5,Fe  0)    -85.5521         0.013762   
    180. D(H  23,C  22,C  19,H  21)    -61.0219         0.012859   
    181. D(H  23,C  22,C  19,N   5)     59.8796         0.012859   
    182. D(N   6,C  22,C  19,H  21)    178.8298         0.012859   
    183. D(N   6,C  22,C  19,H  20)     60.5538         0.012859   
    184. D(N   6,C  22,C  19,N   5)    -60.2686         0.012859   
    185. D(H  23,C  22,N   6,H  42)    172.5808         0.014045   
    186. D(H  23,C  22,N   6,C  25)     57.7719         0.014045   
    187. D(H  23,C  22,N   6,Fe  0)    -69.7132         0.014045   
    188. D(C  19,C  22,N   6,H  42)    -67.2933         0.014045   
    189. D(H  23,C  22,C  19,H  20)   -179.2979         0.012859   
    190. D(C  19,C  22,N   6,Fe  0)     50.4127         0.014045   
    191. D(C  19,C  22,N   6,C  25)    177.8977         0.014045   
    192. D(H  26,C  25,N   6,H  42)    -63.6822         0.016131   
    193. D(H  26,C  25,N   6,C  22)     53.4199         0.016131   
    194. D(H  26,C  25,N   6,Fe  0)    173.2960         0.016131   
    195. D(H  27,C  25,N   6,H  42)    177.8239         0.016131   
    196. D(H  27,C  25,N   6,C  22)    -65.0740         0.016131   
    197. D(H  27,C  25,N   6,Fe  0)     54.8021         0.016131   
    198. D(H  29,C  28,C  25,H  26)    176.6137         0.011583   
    199. D(H  29,C  28,C  25,N   6)     55.8598         0.011583   
    200. D(S   3,C  28,C  25,H  27)     55.0184         0.011583   
    201. D(S   3,C  28,C  25,H  26)    -63.5063         0.011583   
    202. D(S   3,C  28,C  25,N   6)    175.7397         0.011583   
    203. D(H  30,C  28,S   3,C  31)     59.5904         0.003710   
    204. D(H  29,C  28,S   3,C  31)    -60.6317         0.003710   
    205. D(H  29,C  28,C  25,H  27)    -64.8616         0.011583   
    206. D(C  25,C  28,S   3,C  31)    179.4627         0.003710   
    207. D(C  40,C  31,S   3,C  28)     -0.7123         0.004209   
    208. D(C  32,C  31,S   3,C  28)    179.6135         0.004209   
    209. D(C  34,C  32,C  31,C  40)     -1.2675         0.026822   
    210. D(C  34,C  32,C  31,S   3)    178.4271         0.026822   
    211. D(H  33,C  32,C  31,C  40)    178.7465         0.026822   
    212. D(H  33,C  32,C  31,S   3)     -1.5589         0.026822   
    213. D(C  36,C  34,C  32,H  33)   -179.4525         0.029341   
    214. D(C  36,C  34,C  32,C  31)      0.5614         0.029341   
    215. D(H  35,C  34,C  32,H  33)      0.5882         0.029341   
    216. D(H  35,C  34,C  32,C  31)   -179.3979         0.029341   
    217. D(C  38,C  36,C  34,H  35)   -179.7632         0.028656   
    218. D(C  38,C  36,C  34,C  32)      0.2775         0.028656   
    219. D(H  37,C  36,C  34,H  35)      0.1502         0.028656   
    220. D(H  37,C  36,C  34,C  32)   -179.8091         0.028656   
    221. D(C  40,C  38,C  36,H  37)    179.6843         0.030040   
    222. D(C  40,C  38,C  36,C  34)     -0.4024         0.030040   
    223. D(H  39,C  38,C  36,H  37)     -0.3633         0.030040   
    224. D(H  39,C  38,C  36,C  34)    179.5501         0.030040   
    225. D(H  41,C  40,C  38,H  39)     -0.2570         0.027108   
    226. D(H  41,C  40,C  38,C  36)    179.6955         0.027108   
    227. D(C  31,C  40,C  38,H  39)    179.7385         0.027108   
    228. D(C  31,C  40,C  38,C  36)     -0.3091         0.027108   
    229. D(H  41,C  40,C  31,C  32)   -178.8716         0.026925   
    230. D(H  41,C  40,C  31,S   3)      1.4661         0.026925   
    231. D(C  38,C  40,C  31,C  32)      1.1330         0.026925   
    232. D(C  38,C  40,C  31,S   3)   -178.5293         0.026925   
    -----------------------------------------------------------------

Number of atoms                         .... 43
Number of degrees of freedom            .... 232


         *************************************************************
         *                GEOMETRY OPTIMIZATION CYCLE   1            *
         *************************************************************
---------------------------------
CARTESIAN COORDINATES (ANGSTROEM)
---------------------------------
  Fe     0.267500   10.376900   14.911400
  Cl     1.280700    9.440100   13.141500
  Cl     1.361500   10.777500   16.828600
  S      2.119500   14.267000   12.252900
  O     -1.661900    6.882600   15.983300
  N     -1.764300    9.639900   15.126500
  N     -0.698900   12.098700   14.109500
  C     -2.024500    8.498200   14.208200
  H     -1.741700    8.732800   13.311600
  H     -2.976500    8.312100   14.183800
  C     -1.280500    7.265200   14.665000
  H     -1.463800    6.535800   14.052600
  H     -0.326900    7.440900   14.644100
  C     -1.378300    7.945600   16.880900
  H     -0.424800    8.125100   16.876500
  H     -1.629400    7.683200   17.781000
  C     -2.126200    9.204700   16.500700
  H     -3.081300    9.040900   16.547400
  H     -1.912000    9.909900   17.129700
  C     -2.633500   10.783800   14.732200
  H     -2.776700   11.359000   15.500200
  H     -3.496000   10.449600   14.441600
  C     -2.002700   11.581100   13.616300
  H     -1.865700   11.016900   12.839800
  H     -2.581200   12.317300   13.364500
  C      0.014800   12.850200   13.069900
  H     -0.565400   13.541200   12.713200
  H      0.254500   12.251400   12.344900
  C      1.275200   13.489300   13.641600
  H      1.842400   12.816600   14.050300
  H      1.046400   14.151000   14.312700
  C      3.555000   15.002600   12.960600
  C      4.387100   15.668300   12.066500
  H      4.175600   15.680800   11.162000
  C      5.524000   16.310600   12.511600
  H      6.069900   16.760200   11.907700
  C      5.852000   16.287200   13.854500
  H      6.616500   16.721900   14.156200
  C      5.042400   15.615800   14.742600
  H      5.268100   15.595800   15.645200
  C      3.892800   14.966500   14.309000
  H      3.354700   14.512200   14.915700
  H     -0.859200   12.701900   14.756900

----------------------------
CARTESIAN COORDINATES (A.U.)
----------------------------
  NO LB      ZA    FRAG     MASS         X           Y           Z
   0 Fe   26.0000    0    55.850    0.505502   19.609499   28.178462
   1 Cl   17.0000    0    35.453    2.420172   17.839204   24.833836
   2 Cl   17.0000    0    35.453    2.572862   20.366523   31.801445
   3 S    16.0000    0    32.060    4.005275   26.960723   23.154625
   4 O     8.0000    0    15.999   -3.140536   13.006229   30.204060
   5 N     7.0000    0    14.007   -3.334044   18.216771   28.584942
   6 N     7.0000    0    14.007   -1.320730   22.863230   26.663091
   7 C     6.0000    0    12.011   -3.825751   16.059271   26.849607
   8 H     1.0000    0     1.008   -3.291336   16.502600   25.155278
   9 H     1.0000    0     1.008   -5.624770   15.707593   26.803498
  10 C     6.0000    0    12.011   -2.419794   13.729238   27.712834
  11 H     1.0000    0     1.008   -2.766181   12.350872   26.555565
  12 H     1.0000    0     1.008   -0.617751   14.061263   27.673338
  13 C     6.0000    0    12.011   -2.604610   15.015008   31.900278
  14 H     1.0000    0     1.008   -0.802756   15.354214   31.891963
  15 H     1.0000    0     1.008   -3.079120   14.519144   33.601220
  16 C     6.0000    0    12.011   -4.017936   17.394362   31.181804
  17 H     1.0000    0     1.008   -5.822813   17.084825   31.270054
  18 H     1.0000    0     1.008   -3.613156   18.726997   32.370442
  19 C     6.0000    0    12.011   -4.976594   20.378429   27.839823
  20 H     1.0000    0     1.008   -5.247203   21.465399   29.291133
  21 H     1.0000    0     1.008   -6.606483   19.746882   27.290669
  22 C     6.0000    0    12.011   -3.784555   21.885107   25.731078
  23 H     1.0000    0     1.008   -3.525662   20.818924   24.263706
  24 H     1.0000    0     1.008   -4.877761   23.276324   25.255245
  25 C     6.0000    0    12.011    0.027968   24.283359   24.698532
  26 H     1.0000    0     1.008   -1.068451   25.589160   24.024466
  27 H     1.0000    0     1.008    0.480935   23.151791   23.328480
  28 C     6.0000    0    12.011    2.409779   25.491083   25.778888
  29 H     1.0000    0     1.008    3.481631   24.219864   26.551219
  30 H     1.0000    0     1.008    1.977409   26.741515   27.047083
  31 C     6.0000    0    12.011    6.717976   28.350805   24.491985
  32 C     6.0000    0    12.011    8.290418   29.608796   22.802380
  33 H     1.0000    0     1.008    7.890740   29.632418   21.093123
  34 C     6.0000    0    12.011   10.438847   30.822567   23.643497
  35 H     1.0000    0     1.008   11.470449   31.672188   22.502292
  36 C     6.0000    0    12.011   11.058677   30.778347   26.181211
  37 H     1.0000    0     1.008   12.503373   31.599811   26.751341
  38 C     6.0000    0    12.011    9.528755   29.509585   27.859477
  39 H     1.0000    0     1.008    9.955266   29.471791   29.565143
  40 C     6.0000    0    12.011    7.356326   28.282586   27.040091
  41 H     1.0000    0     1.008    6.339464   27.424084   28.186588
  42 H     1.0000    0     1.008   -1.623653   24.003112   27.886500

--------------------------------
INTERNAL COORDINATES (ANGSTROEM)
--------------------------------
 Fe     0   0   0     0.000000000000     0.00000000     0.00000000
 Cl     1   0   0     2.244262571537     0.00000000     0.00000000
 Cl     1   2   0     2.243428670584   121.89315752     0.00000000
 S      2   1   3     4.979172522619    79.17218293   270.23980892
 O      1   2   3     4.132999692717    93.57615847   257.04747082
 N      1   2   3     2.172014790465   111.02535209   218.33019165
 N      1   2   3     2.131095448355   104.19524268   129.90104114
 C      6   1   2     1.488105446533   111.27117820     9.40784312
 H      8   6   1     0.968970876755   109.52504081   310.29876716
 H      8   6   1     0.970326012225   109.52474229   191.99296575
 C      5   1   2     1.424697725835    53.70070565   330.71597271
 H     11   5   1     0.969874739335   109.37251793   174.39936940
 H     11   5   1     0.969876414808   109.37821787    56.34710767
 C      5   1   2     1.419888629435    55.78876570   156.33322005
 H     14   5   1     0.970258656236   109.38530940   303.42729443
 H     14   5   1     0.970610622237   109.40069426   185.35441785
 C      6   1   2     1.486201968105   114.75362680   131.95297855
 H     17   6   1     0.970168717286   109.49184781   170.07390024
 H     17   6   1     0.968932237053   109.46869338    51.83881842
 C      6   1   2     1.489794730827   105.01230277   251.75616234
 H     20   6   1     0.970147040402   109.38063481   274.44791779
 H     20   6   1     0.969558791410   109.49209024   156.18688199
 C      7   1   2     1.486960133965   103.95659629    85.72276844
 H     23   7   1     0.969558090060   110.13923178   290.28682861
 H     23   7   1     0.969564814749   110.18141392   170.56094454
 C      7   1   2     1.467953711804   117.36292514   321.84342165
 H     26   7   1     0.970230864279   109.52549378   173.29599677
 H     26   7   1     0.970382671939   109.46951735    54.80206653
 C     26   7   1     1.524433619414   110.54916758   294.03167252
 H     29  26   7     0.970194217670   110.52790090    55.85976232
 H     29  26   7     0.969830675943   110.51735121   295.56866035
 C      4   2   1     1.761421840446   118.06245388    87.69389948
 C     32   4   2     1.391029011200   115.41143736   126.80762322
 H     33  32   4     0.928982642464   119.74049334   358.44109619
 C     33  32   4     1.379566928424   120.55735244   178.42713737
 H     35  33  32     0.929968913459   119.95559546   180.60210995
 C     35  33  32     1.382574399445   120.06666253     0.56142992
 H     37  35  33     0.929756543403   120.15494366   180.19087389
 C     37  35  33     1.376572457228   119.69402713     0.27751615
 H     39  37  35     0.930605851045   119.57623285   179.55010170
 C     39  37  35     1.389668885023   120.87144891   359.59764159
 H     41  39  37     0.929529445472   120.23806587   179.69550453
 H      7   1   2     0.899262525629   110.60253163   201.90719006

---------------------------
INTERNAL COORDINATES (A.U.)
---------------------------
 Fe     0   0   0     0.000000000000     0.00000000     0.00000000
 Cl     1   0   0     4.241041632814     0.00000000     0.00000000
 Cl     1   2   0     4.239465788392   121.89315752     0.00000000
 S      2   1   3     9.409272441295    79.17218293   270.23980892
 O      1   2   3     7.810237530816    93.57615847   257.04747082
 N      1   2   3     4.104513112806   111.02535209   218.33019165
 N      1   2   3     4.027186762637   104.19524268   129.90104114
 C      6   1   2     2.812111752343   111.27117820     9.40784312
 H      8   6   1     1.831089588813   109.52504081   310.29876716
 H      8   6   1     1.833650423725   109.52474229   191.99296575
 C      5   1   2     2.692288525449    53.70070565   330.71597271
 H     11   5   1     1.832797641551   109.37251793   174.39936940
 H     11   5   1     1.832800807736   109.37821787    56.34710767
 C      5   1   2     2.683200650302    55.78876570   156.33322005
 H     14   5   1     1.833523139352   109.38530940   303.42729443
 H     14   5   1     1.834188258704   109.40069426   185.35441785
 C      6   1   2     2.808514699414   114.75362680   131.95297855
 H     17   6   1     1.833353179368   109.49184781   170.07390024
 H     17   6   1     1.831016570357   109.46869338    51.83881842
 C      6   1   2     2.815304037022   105.01230277   251.75616234
 H     20   6   1     1.833312215993   109.38063481   274.44791779
 H     20   6   1     1.832200586500   109.49209024   156.18688199
 C      7   1   2     2.809947425252   103.95659629    85.72276844
 H     23   7   1     1.832199261140   110.13923178   290.28682861
 H     23   7   1     1.832211968962   110.18141392   170.56094454
 C      7   1   2     2.774030492583   117.36292514   321.84342165
 H     26   7   1     1.833470620165   109.52549378   173.29599677
 H     26   7   1     1.833757495068   109.46951735    54.80206653
 C     26   7   1     2.880762050035   110.54916758   294.03167252
 H     29  26   7     1.833401368110   110.52790090    55.85976232
 H     29  26   7     1.832714373808   110.51735121   295.56866035
 C      4   2   1     3.328604884750   118.06245388    87.69389948
 C     32   4   2     2.628663875507   115.41143736   126.80762322
 H     33  32   4     1.755522777424   119.74049334   358.44109619
 C     33  32   4     2.607003678135   120.55735244   178.42713737
 H     35  33  32     1.757386559498   119.95559546   180.60210995
 C     35  33  32     2.612686974721   120.06666253     0.56142992
 H     37  35  33     1.756985238252   120.15494366   180.19087389
 C     37  35  33     2.601344947661   119.69402713     0.27751615
 H     39  37  35     1.758590197101   119.57623285   179.55010170
 C     39  37  35     2.626093609524   120.87144891   359.59764159
 H     41  39  37     1.756556085358   120.23806587   179.69550453
 H      7   1   2     1.699359895936   110.60253163   201.90719006

---------------------
BASIS SET INFORMATION
---------------------
There are 7 groups of distinct atoms

 Group   1 Type Fe  : 17s11p7d1f contracted to 6s4p4d1f pattern {842111/6311/4111/1}
 Group   2 Type Cl  : 14s9p3d1f contracted to 5s5p2d1f pattern {73211/51111/21/1}
 Group   3 Type S   : 14s9p3d1f contracted to 5s5p2d1f pattern {73211/51111/21/1}
 Group   4 Type O   : 11s6p2d1f contracted to 5s3p2d1f pattern {62111/411/11/1}
 Group   5 Type N   : 11s6p2d1f contracted to 5s3p2d1f pattern {62111/411/11/1}
 Group   6 Type C   : 11s6p2d1f contracted to 5s3p2d1f pattern {62111/411/11/1}
 Group   7 Type H   : 5s1p contracted to 3s1p pattern {311/1}

Atom   0Fe   basis set group =>   1
Atom   1Cl   basis set group =>   2
Atom   2Cl   basis set group =>   2
Atom   3S    basis set group =>   3
Atom   4O    basis set group =>   4
Atom   5N    basis set group =>   5
Atom   6N    basis set group =>   5
Atom   7C    basis set group =>   6
Atom   8H    basis set group =>   7
Atom   9H    basis set group =>   7
Atom  10C    basis set group =>   6
Atom  11H    basis set group =>   7
Atom  12H    basis set group =>   7
Atom  13C    basis set group =>   6
Atom  14H    basis set group =>   7
Atom  15H    basis set group =>   7
Atom  16C    basis set group =>   6
Atom  17H    basis set group =>   7
Atom  18H    basis set group =>   7
Atom  19C    basis set group =>   6
Atom  20H    basis set group =>   7
Atom  21H    basis set group =>   7
Atom  22C    basis set group =>   6
Atom  23H    basis set group =>   7
Atom  24H    basis set group =>   7
Atom  25C    basis set group =>   6
Atom  26H    basis set group =>   7
Atom  27H    basis set group =>   7
Atom  28C    basis set group =>   6
Atom  29H    basis set group =>   7
Atom  30H    basis set group =>   7
Atom  31C    basis set group =>   6
Atom  32C    basis set group =>   6
Atom  33H    basis set group =>   7
Atom  34C    basis set group =>   6
Atom  35H    basis set group =>   7
Atom  36C    basis set group =>   6
Atom  37H    basis set group =>   7
Atom  38C    basis set group =>   6
Atom  39H    basis set group =>   7
Atom  40C    basis set group =>   6
Atom  41H    basis set group =>   7
Atom  42H    basis set group =>   7
---------------------------------
AUXILIARY/J BASIS SET INFORMATION
---------------------------------
There are 7 groups of distinct atoms

 Group   1 Type Fe  : 19s5p5d3f3g contracted to 8s5p5d2f3g pattern {121111111/11111/11111/21/111}
 Group   2 Type Cl  : 14s5p5d2f1g contracted to 8s4p3d1f1g pattern {71111111/2111/311/2/1}
 Group   3 Type S   : 14s5p5d2f1g contracted to 8s4p3d1f1g pattern {71111111/2111/311/2/1}
 Group   4 Type O   : 12s5p4d2f1g contracted to 6s4p3d1f1g pattern {711111/2111/211/2/1}
 Group   5 Type N   : 12s5p4d2f1g contracted to 6s4p3d1f1g pattern {711111/2111/211/2/1}
 Group   6 Type C   : 12s5p4d2f1g contracted to 6s4p3d1f1g pattern {711111/2111/211/2/1}
 Group   7 Type H   : 5s2p1d contracted to 3s1p1d pattern {311/2/1}

Atom   0Fe   basis set group =>   1
Atom   1Cl   basis set group =>   2
Atom   2Cl   basis set group =>   2
Atom   3S    basis set group =>   3
Atom   4O    basis set group =>   4
Atom   5N    basis set group =>   5
Atom   6N    basis set group =>   5
Atom   7C    basis set group =>   6
Atom   8H    basis set group =>   7
Atom   9H    basis set group =>   7
Atom  10C    basis set group =>   6
Atom  11H    basis set group =>   7
Atom  12H    basis set group =>   7
Atom  13C    basis set group =>   6
Atom  14H    basis set group =>   7
Atom  15H    basis set group =>   7
Atom  16C    basis set group =>   6
Atom  17H    basis set group =>   7
Atom  18H    basis set group =>   7
Atom  19C    basis set group =>   6
Atom  20H    basis set group =>   7
Atom  21H    basis set group =>   7
Atom  22C    basis set group =>   6
Atom  23H    basis set group =>   7
Atom  24H    basis set group =>   7
Atom  25C    basis set group =>   6
Atom  26H    basis set group =>   7
Atom  27H    basis set group =>   7
Atom  28C    basis set group =>   6
Atom  29H    basis set group =>   7
Atom  30H    basis set group =>   7
Atom  31C    basis set group =>   6
Atom  32C    basis set group =>   6
Atom  33H    basis set group =>   7
Atom  34C    basis set group =>   6
Atom  35H    basis set group =>   7
Atom  36C    basis set group =>   6
Atom  37H    basis set group =>   7
Atom  38C    basis set group =>   6
Atom  39H    basis set group =>   7
Atom  40C    basis set group =>   6
Atom  41H    basis set group =>   7
Atom  42H    basis set group =>   7


           ************************************************************
           *        Program running with 16 parallel MPI-processes    *
           *              working on a common directory               *
           ************************************************************
------------------------------------------------------------------------------
                             ORCA STARTUP CALCULATIONS
                           -- RI-GTO INTEGRALS CHOSEN --
------------------------------------------------------------------------------
------------------------------------------------------------------------------
                   ___                                                        
                  /   \      - P O W E R E D   B Y -                         
                 /     \                                                     
                 |  |  |   _    _      __       _____    __    __             
                 |  |  |  | |  | |    /  \     |  _  \  |  |  /  |          
                  \  \/   | |  | |   /    \    | | | |  |  | /  /          
                 / \  \   | |__| |  /  /\  \   | |_| |  |  |/  /          
                |  |  |   |  __  | /  /__\  \  |    /   |      \           
                |  |  |   | |  | | |   __   |  |    \   |  |\   \          
                \     /   | |  | | |  |  |  |  | |\  \  |  | \   \       
                 \___/    |_|  |_| |__|  |__|  |_| \__\ |__|  \__/        
                                                                              
                      - O R C A' S   B I G   F R I E N D -                    
                                      &                                       
                       - I N T E G R A L  F E E D E R -                       
                                                                              
 v1 FN, 2020, v2 2021, v3 2022-2024                                           
------------------------------------------------------------------------------


----------------------
SHARK INTEGRAL PACKAGE
----------------------

Number of atoms                             ...     43
Number of basis functions                   ...    815
Number of shells                            ...    329
Maximum angular momentum                    ...      3
Integral batch strategy                     ... SHARK/LIBINT Hybrid
RI-J (if used) integral strategy            ... SPLIT-RIJ (Revised 2003 algorithm where possible)
Printlevel                                  ...      1
Contraction scheme used                     ... SEGMENTED contraction
Prescreening option                         ... SCHWARTZ
   Thresh                                   ... 2.500e-11
   Tcut                                     ... 2.500e-12
   Tpresel                                  ... 2.500e-12 
Coulomb Range Separation                    ... NOT USED
Exchange Range Separation                   ... NOT USED
Multipole approximations                    ... NOT USED
Finite Nucleus Model                        ... NOT USED
CABS basis                                  ... NOT available
Auxiliary Coulomb fitting basis             ... AVAILABLE
   # of basis functions in Aux-J            ...   1317
   # of shells in Aux-J                     ...    439
   Maximum angular momentum in Aux-J        ...      4
Auxiliary J/K fitting basis                 ... NOT available
Auxiliary Correlation fitting basis         ... NOT available
Auxiliary 'external' fitting basis          ... NOT available

Checking pre-screening integrals            ... done (  0.0 sec) Dimension = 329
Check shell pair data                       ... done (  0.0 sec)
Shell pair information
Shell pair cut-off parameter TPreSel        ...   2.5e-12
Total number of shell pairs                 ...     54285
Shell pairs after pre-screening             ...     33892
Total number of primitive shell pairs       ...    174362
Primitive shell pairs kept                  ...     71339
          la=0 lb=0:   9131 shell pairs
          la=1 lb=0:  10095 shell pairs
          la=1 lb=1:   2862 shell pairs
          la=2 lb=0:   4703 shell pairs
          la=2 lb=1:   2606 shell pairs
          la=2 lb=2:    623 shell pairs
          la=3 lb=0:   2058 shell pairs
          la=3 lb=1:   1150 shell pairs
          la=3 lb=2:    537 shell pairs
          la=3 lb=3:    127 shell pairs

Calculating one electron integrals          ... done (  0.0 sec)
done (  0.2 sec)
Calculating Nuclear repulsion               ... done (  0.0 sec) ENN=   2673.890886920121 Eh

Diagonalization of the overlap matrix:
Smallest eigenvalue                        ... 7.113e-06
Time for diagonalization                   ...    0.090 sec
Threshold for overlap eigenvalues          ... 1.000e-07
Number of eigenvalues below threshold      ... 0
Time for construction of square roots      ...    0.063 sec
Total time needed                          ...    0.172 sec

-------------------
DFT GRID GENERATION
-------------------

General Integration Accuracy     IntAcc      ... 4.959
Radial Grid Type                 RadialGrid  ... OptM3 with GC (2021)
Angular Grid (max. ang.)         AngularGrid ... 6 (Lebedev-590)
Angular grid pruning method      GridPruning ... 4 (adaptive)
Weight generation scheme         WeightScheme... mBecke (2022)
Basis function cutoff            BFCut       ... 1.0000e-11
Integration weight cutoff        WCut        ... 1.0000e-14
Partially contracted basis set               ... off
Rotationally invariant grid construction     ... off
Angular grids for H and He will be reduced by one unit
Core-polarized basis detected: some atoms will have their core
                               angular grid increased.

Total number of grid points                  ...   500503
Total number of batches                      ...     7843
Average number of points per batch           ...       63
Average number of grid points per atom       ...    11640

--------------------
COSX GRID GENERATION
--------------------

GRIDX 1
-------
General Integration Accuracy     IntAcc      ... 4.020
Radial Grid Type                 RadialGrid  ... OptM3 with GC (2021)
Angular Grid (max. ang.)         AngularGrid ... 2 (Lebedev-110)
Angular grid pruning method      GridPruning ... 4 (adaptive)
Weight generation scheme         WeightScheme... mBecke (2022)
Basis function cutoff            BFCut       ... 1.0000e-11
Integration weight cutoff        WCut        ... 1.0000e-14
Partially contracted basis set               ... on
Rotationally invariant grid construction     ... off
Angular grids for H and He will be reduced by one unit
Core-polarized basis detected: some atoms will have their core
                               angular grid increased.

Total number of grid points                  ...    56930
Total number of batches                      ...      464
Average number of points per batch           ...      122
Average number of grid points per atom       ...     1324
UseSFitting                                  ... on

GRIDX 2
-------
General Integration Accuracy     IntAcc      ... 4.338
Radial Grid Type                 RadialGrid  ... OptM3 with GC (2021)
Angular Grid (max. ang.)         AngularGrid ... 3 (Lebedev-194)
Angular grid pruning method      GridPruning ... 4 (adaptive)
Weight generation scheme         WeightScheme... mBecke (2022)
Basis function cutoff            BFCut       ... 1.0000e-11
Integration weight cutoff        WCut        ... 1.0000e-14
Partially contracted basis set               ... on
Rotationally invariant grid construction     ... off
Angular grids for H and He will be reduced by one unit
Core-polarized basis detected: some atoms will have their core
                               angular grid increased.

Total number of grid points                  ...   119371
Total number of batches                      ...      953
Average number of points per batch           ...      125
Average number of grid points per atom       ...     2776
UseSFitting                                  ... on

GRIDX 3
-------
General Integration Accuracy     IntAcc      ... 4.871
Radial Grid Type                 RadialGrid  ... OptM3 with GC (2021)
Angular Grid (max. ang.)         AngularGrid ... 4 (Lebedev-302)
Angular grid pruning method      GridPruning ... 4 (adaptive)
Weight generation scheme         WeightScheme... mBecke (2022)
Basis function cutoff            BFCut       ... 1.0000e-11
Integration weight cutoff        WCut        ... 1.0000e-14
Partially contracted basis set               ... on
Rotationally invariant grid construction     ... off
Angular grids for H and He will be reduced by one unit
Core-polarized basis detected: some atoms will have their core
                               angular grid increased.

Total number of grid points                  ...   226189
Total number of batches                      ...     1792
Average number of points per batch           ...      126
Average number of grid points per atom       ...     5260
UseSFitting                                  ... on
Initializing property integral containers    ... done (  0.0 sec)

SHARK setup successfully completed in   7.1 seconds

Maximum memory used throughout the entire STARTUP-calculation: 149.2 MB


           ************************************************************
           *        Program running with 16 parallel MPI-processes    *
           *              working on a common directory               *
           ************************************************************
-------------------------------------------------------------------------------
                                 ORCA GUESS
                   Start orbitals & Density for SCF / CASSCF
-------------------------------------------------------------------------------

------------
SCF SETTINGS
------------
Hamiltonian:
 Density Functional     Method          .... DFT(GTOs)
 Exchange Functional    Exchange        .... PBE
   PBE kappa parameter   XKappa         ....  0.804000
   PBE mue parameter    XMuePBE         ....  0.219520
 Correlation Functional Correlation     .... PBE
   PBE beta parameter  CBetaPBE         ....  0.066725
 LDA part of GGA corr.  LDAOpt          .... PW91-LDA
 Gradients option       PostSCFGGA      .... off
 Hybrid DFT is turned on
   Fraction HF Exchange ScalHFX         ....  0.250000
   Scaling of DF-GGA-X  ScalDFX         ....  0.750000
   Scaling of DF-GGA-C  ScalDFC         ....  1.000000
   Scaling of DF-LDA-C  ScalLDAC        ....  1.000000
   Perturbative correction              ....  0.000000
   NL short-range parameter             ....  6.900000
 RI-approximation to the Coulomb term is turned on
   Number of AuxJ basis functions       .... 1317
   RIJ-COSX (HFX calculated with COS-X)).... on


General Settings:
 Integral files         IntName         .... SUVROS-S5
 Hartree-Fock type      HFTyp           .... RHF
 Total Charge           Charge          ....    0
 Multiplicity           Mult            ....    1
 Number of Electrons    NEL             ....  204
 Basis Dimension        Dim             ....  815
 Nuclear Repulsion      ENuc            ....   2673.8908869201 Eh

Convergence Acceleration:
 AO-DIIS                CNVDIIS         .... on
   Start iteration      DIISMaxIt       ....    12
   Startup error        DIISStart       ....  0.200000
   # of expansion vecs  DIISMaxEq       ....     5
   Bias factor          DIISBfac        ....   1.050
   Max. coefficient     DIISMaxC        ....  10.000
 MO-DIIS                CNVKDIIS        .... off
 Trust-Rad. Augm. Hess. CNVTRAH         .... auto
   Auto Start mean grad. ratio tolernc. ....  1.125000
   Auto Start start iteration           ....    50
   Auto Start num. interpolation iter.  ....    10
   Max. Number of Micro iterations      ....    24
   Max. Number of Macro iterations      .... Maxiter - #DIIS iter
   Number of Davidson start vectors     ....     2
   Converg. threshold    (grad. norm)   ....   1.000e-05
   Grad. Scal. Fac. for Micro threshold ....   0.100
   Minimum threshold for Micro iter.    ....   1.000e-02
   NR start threshold (gradient norm)   ....   1.000e-04
   Initial trust radius                 ....   0.400
   Minimum AH scaling param. (alpha)    ....   1.000
   Maximum AH scaling param. (alpha)    .... 1000.000
   Quad. conv. algorithm                .... NR
   White noise on init. David. guess    .... on
   Maximum white noise                  ....   0.010
   Pseudo random numbers                .... off
   Inactive MOs                         .... canonical
   Orbital update algorithm             .... Taylor
   Preconditioner                       .... Diag
   Full preconditioner red. dimension   ....   250
 SOSCF                  CNVSOSCF        .... on
   Start iteration      SOSCFMaxIt      ....   150
   Startup grad/error   SOSCFStart      ....  0.003300
   Hessian update       SOSCFHessUp     .... L-BFGS
 Level Shifting         CNVShift        .... on
   Level shift para.    LevelShift      ....    0.2500
   Turn off err/grad.   ShiftErr        ....    0.0010
 Zerner damping         CNVZerner       .... off
 Static damping         CNVDamp         .... on
   Fraction old density DampFac         ....    0.7000
   Max. Damping (<1)    DampMax         ....    0.9800
   Min. Damping (>=0)   DampMin         ....    0.0000
   Turn off err/grad.   DampErr         ....    0.1000

SCF Procedure:
 Maximum # iterations   MaxIter         ....   125
 SCF integral mode      SCFMode         .... Direct
   Integral package                     .... SHARK and LIBINT hybrid scheme
 Reset frequency        DirectResetFreq ....    20
 Integral Threshold     Thresh          ....  2.500e-11 Eh
 Primitive CutOff       TCut            ....  2.500e-12 Eh

Convergence Tolerance:
 Convergence Check Mode ConvCheckMode   .... Total+1el-Energy
 Convergence forced     ConvForced      .... 0
 Energy Change          TolE            ....  1.000e-08 Eh
 1-El. energy change                    ....  1.000e-05 Eh
 Orbital Gradient       TolG            ....  1.000e-05
 Orbital Rotation angle TolX            ....  1.000e-05
 DIIS Error             TolErr          ....  5.000e-07

------------------------------
INITIAL GUESS: MODEL POTENTIAL
------------------------------
Loading Hartree-Fock densities                     ... done
Calculating cut-offs                               ... done
Initializing the effective Hamiltonian             ... done
Setting up the integral package (SHARK)            ... done
done (   0.2 sec)
Making the grid                                    ... done (   0.2 sec)
Mapping shells                                     ... done
Starting the XC term evaluation                    ... done (   0.1 sec)
  promolecular density results
     # of electrons  =    203.988879175
     EX              =   -233.818188151
     EC              =     -7.484506120
     EX+EC           =   -241.302694271
Transforming the Hamiltonian                       ... done (   0.1 sec)
done (   0.1 sec)
Back transforming the eigenvectors                 ... done (   0.0 sec)
done
                      ------------------
                      INITIAL GUESS DONE (   0.9 sec)
                      ------------------
             **** ENERGY FILE WAS UPDATED (SUVROS-S5.en.tmp) ****
Finished Guess after   1.2 sec
Maximum memory used throughout the entire GUESS-calculation: 64.8 MB


           ************************************************************
           *        Program running with 16 parallel MPI-processes    *
           *              working on a common directory               *
           ************************************************************

-------------------------------------------------------------------------------------------
                                      ORCA LEAN-SCF
                              memory conserving SCF solver
-------------------------------------------------------------------------------------------

----------------------------------------D-I-I-S--------------------------------------------
Iteration    Energy (Eh)           Delta-E    RMSDP     MaxDP     DIISErr   Damp  Time(sec)
-------------------------------------------------------------------------------------------
               ***  Starting incremental Fock matrix formation  ***
    1    -3311.7753133402152343     0.00e+00  8.67e-04  5.29e-02  1.56e-01  0.700  10.5
    2    -3311.9942913875770500    -2.19e-01  7.24e-04  4.00e-02  7.99e-02  0.700   5.2
                               ***Turning on AO-DIIS***
    3    -3312.0978487914494508    -1.04e-01  3.84e-04  2.76e-02  3.86e-02  0.700   5.1
    4    -3312.1592493000175637    -6.14e-02  7.92e-04  5.62e-02  2.26e-02  0.000   4.7
    5    -3312.2911625886185902    -1.32e-01  1.19e-04  1.12e-02  4.16e-03  0.000   5.0
                              *** Initializing SOSCF ***
---------------------------------------S-O-S-C-F--------------------------------------
Iteration    Energy (Eh)           Delta-E    RMSDP     MaxDP     MaxGrad    Time(sec)
--------------------------------------------------------------------------------------
    6    -3312.2917650874073843    -6.02e-04  6.04e-05  4.23e-03  2.91e-03     4.7
               *** Restarting incremental Fock matrix formation ***
    7    -3312.2918857789677531    -1.21e-04  5.16e-05  4.88e-03  1.44e-03     9.9
    8    -3312.2918854885306246     2.90e-07  6.97e-05  6.35e-03  2.34e-03     6.8
    9    -3312.2920082171017384    -1.23e-04  3.64e-05  2.35e-03  5.46e-04     6.7
   10    -3312.2920110265463336    -2.81e-06  1.58e-05  1.16e-03  5.24e-04     6.6
   11    -3312.2920328787463404    -2.19e-05  1.16e-05  1.28e-03  1.88e-04     5.8
   12    -3312.2920365465702162    -3.67e-06  1.79e-05  2.35e-03  1.50e-04     5.6
   13    -3312.2920414048644489    -4.86e-06  2.25e-05  3.39e-03  1.64e-04     5.5
   14    -3312.2920457847617399    -4.38e-06  1.52e-05  2.89e-03  1.44e-04     5.7
   15    -3312.2920484867850064    -2.70e-06  7.81e-06  9.58e-04  8.51e-05     5.3
   16    -3312.2920490819301449    -5.95e-07  3.31e-06  2.05e-04  5.28e-05     5.3
   17    -3312.2920492268335693    -1.45e-07  1.74e-06  2.04e-04  4.67e-05     4.6
   18    -3312.2920493226488361    -9.58e-08  1.54e-06  1.19e-04  1.91e-05     4.2
   19    -3312.2920493734031879    -5.08e-08  4.89e-06  4.96e-04  1.54e-05     4.3
   20    -3312.2920494084505663    -3.50e-08  1.33e-05  1.16e-03  1.26e-05     4.2
   21    -3312.2920494834993406    -7.50e-08  1.17e-05  1.19e-03  9.83e-06     4.8
   22    -3312.2920495280709474    -4.46e-08  1.91e-06  9.57e-05  8.43e-06     4.5
   23    -3312.2920494999648326     2.81e-08  4.80e-06  4.68e-04  2.53e-06     3.8
   24    -3312.2920495024104639    -2.45e-09  3.06e-06  2.79e-04  1.69e-06     3.6
                 **** Energy Check signals convergence ****

               *****************************************************
               *                     SUCCESS                       *
               *           SCF CONVERGED AFTER  24 CYCLES          *
               *****************************************************

 done (   17.160 sec)
Old exchange energy                            :    -59.411645649 Eh
New exchange energy                            :    -59.411654394 Eh
Exchange energy change after final integration :     -0.000008745 Eh
Total energy after final integration           :  -3312.292058247 Eh
             **** ENERGY FILE WAS UPDATED (SUVROS-S5.en.tmp) ****

----------------
TOTAL SCF ENERGY
----------------

Total Energy       :      -3312.29205824734663 Eh          -90132.04913 eV

Components:
Nuclear Repulsion  :       2673.89088692012092 Eh           72760.27009 eV
Electronic Energy  :      -5986.18293642253229 Eh         -162892.31899 eV
One Electron Energy:      -9884.83961273873683 Eh         -268980.16055 eV
Two Electron Energy:       3898.65667631620499 Eh          106087.84156 eV

Virial components:
Potential Energy   :      -6622.45326695609674 Eh         -180206.11490 eV
Kinetic Energy     :       3310.16120870875011 Eh           90074.06577 eV
Virial Ratio       :          2.00064372983799

DFT components:
N(Alpha)           :      102.000009747861 electrons
N(Beta)            :      102.000009747861 electrons
N(Total)           :      204.000019495723 electrons
E(X)               :     -177.538924196701 Eh       
E(C)               :       -7.438923744175 Eh       
E(XC)              :     -184.977847940876 Eh       

---------------
SCF CONVERGENCE
---------------

  Last Energy change         ...    2.4456e-09  Tolerance :   1.0000e-08
  Last MAX-Density change    ...    2.7937e-04  Tolerance :   1.0000e-07
  Last RMS-Density change    ...    3.0586e-06  Tolerance :   5.0000e-09
  Last DIIS Error            ...    2.9053e-03  Tolerance :   5.0000e-07
  Last Orbital Gradient      ...    1.6948e-06  Tolerance :   1.0000e-05
  Last Orbital Rotation      ...    2.1987e-05  Tolerance :   1.0000e-05


----------------
ORBITAL ENERGIES
----------------

  NO   OCC          E(Eh)            E(eV) 
   0   2.0000    -256.364108     -6976.0220 
   1   2.0000    -101.628536     -2765.4531 
   2   2.0000    -101.624245     -2765.3363 
   3   2.0000     -89.028258     -2422.5821 
   4   2.0000     -30.124693      -819.7346 
   5   2.0000     -25.951529      -706.1770 
   6   2.0000     -25.950995      -706.1625 
   7   2.0000     -25.950261      -706.1425 
   8   2.0000     -19.218227      -522.9545 
   9   2.0000     -14.460941      -393.5022 
  10   2.0000     -14.447082      -393.1251 
  11   2.0000     -10.272622      -279.5323 
  12   2.0000     -10.271176      -279.4929 
  13   2.0000     -10.260282      -279.1965 
  14   2.0000     -10.257535      -279.1217 
  15   2.0000     -10.252315      -278.9797 
  16   2.0000     -10.250388      -278.9272 
  17   2.0000     -10.248650      -278.8799 
  18   2.0000     -10.247109      -278.8380 
  19   2.0000     -10.242591      -278.7151 
  20   2.0000     -10.209942      -277.8266 
  21   2.0000     -10.207721      -277.7662 
  22   2.0000     -10.207069      -277.7485 
  23   2.0000     -10.206629      -277.7365 
  24   2.0000     -10.199905      -277.5535 
  25   2.0000      -9.454318      -257.2651 
  26   2.0000      -9.450213      -257.1534 
  27   2.0000      -8.007341      -217.8908 
  28   2.0000      -7.184221      -195.4926 
  29   2.0000      -7.182428      -195.4438 
  30   2.0000      -7.182315      -195.4407 
  31   2.0000      -7.180565      -195.3931 
  32   2.0000      -7.178144      -195.3272 
  33   2.0000      -7.177894      -195.3204 
  34   2.0000      -5.943848      -161.7403 
  35   2.0000      -5.940547      -161.6505 
  36   2.0000      -5.935845      -161.5226 
  37   2.0000      -3.482277       -94.7576 
  38   2.0000      -2.240051       -60.9549 
  39   2.0000      -2.237889       -60.8960 
  40   2.0000      -2.235682       -60.8360 
  41   2.0000      -1.081699       -29.4345 
  42   2.0000      -1.027006       -27.9463 
  43   2.0000      -0.999363       -27.1940 
  44   2.0000      -0.899413       -24.4743 
  45   2.0000      -0.868318       -23.6281 
  46   2.0000      -0.843269       -22.9465 
  47   2.0000      -0.836733       -22.7687 
  48   2.0000      -0.797581       -21.7033 
  49   2.0000      -0.788593       -21.4587 
  50   2.0000      -0.760234       -20.6870 
  51   2.0000      -0.758227       -20.6324 
  52   2.0000      -0.753223       -20.4962 
  53   2.0000      -0.730521       -19.8785 
  54   2.0000      -0.724381       -19.7114 
  55   2.0000      -0.704415       -19.1681 
  56   2.0000      -0.682902       -18.5827 
  57   2.0000      -0.652991       -17.7688 
  58   2.0000      -0.651961       -17.7408 
  59   2.0000      -0.621742       -16.9185 
  60   2.0000      -0.595854       -16.2140 
  61   2.0000      -0.572977       -15.5915 
  62   2.0000      -0.561961       -15.2917 
  63   2.0000      -0.559587       -15.2271 
  64   2.0000      -0.539042       -14.6681 
  65   2.0000      -0.533832       -14.5263 
  66   2.0000      -0.529413       -14.4061 
  67   2.0000      -0.522076       -14.2064 
  68   2.0000      -0.509103       -13.8534 
  69   2.0000      -0.498489       -13.5646 
  70   2.0000      -0.494423       -13.4539 
  71   2.0000      -0.477605       -12.9963 
  72   2.0000      -0.466724       -12.7002 
  73   2.0000      -0.460400       -12.5281 
  74   2.0000      -0.455304       -12.3895 
  75   2.0000      -0.448390       -12.2013 
  76   2.0000      -0.443618       -12.0715 
  77   2.0000      -0.442790       -12.0489 
  78   2.0000      -0.429888       -11.6978 
  79   2.0000      -0.414412       -11.2767 
  80   2.0000      -0.407182       -11.0800 
  81   2.0000      -0.399176       -10.8621 
  82   2.0000      -0.394941       -10.7469 
  83   2.0000      -0.382630       -10.4119 
  84   2.0000      -0.367725       -10.0063 
  85   2.0000      -0.364534        -9.9195 
  86   2.0000      -0.345978        -9.4145 
  87   2.0000      -0.339753        -9.2451 
  88   2.0000      -0.337676        -9.1886 
  89   2.0000      -0.335044        -9.1170 
  90   2.0000      -0.326277        -8.8784 
  91   2.0000      -0.306908        -8.3514 
  92   2.0000      -0.305998        -8.3266 
  93   2.0000      -0.298690        -8.1278 
  94   2.0000      -0.291409        -7.9296 
  95   2.0000      -0.281222        -7.6524 
  96   2.0000      -0.280187        -7.6243 
  97   2.0000      -0.269118        -7.3231 
  98   2.0000      -0.258275        -7.0280 
  99   2.0000      -0.235625        -6.4117 
 100   2.0000      -0.223368        -6.0781 
 101   2.0000      -0.217167        -5.9094 
 102   0.0000      -0.065803        -1.7906 
 103   0.0000      -0.063199        -1.7197 
 104   0.0000      -0.009027        -0.2456 
 105   0.0000      -0.004752        -0.1293 
 106   0.0000       0.009223         0.2510 
 107   0.0000       0.027534         0.7492 
 108   0.0000       0.043367         1.1801 
 109   0.0000       0.046320         1.2604 
 110   0.0000       0.055359         1.5064 
 111   0.0000       0.065878         1.7926 
 112   0.0000       0.070430         1.9165 
*Only the first 10 virtual orbitals were printed.

                    ********************************
                    * MULLIKEN POPULATION ANALYSIS *
                    ********************************

-----------------------
MULLIKEN ATOMIC CHARGES
-----------------------
   0 Fe:    0.379379
   1 Cl:   -0.494835
   2 Cl:   -0.497826
   3 S :   -0.087241
   4 O :   -0.303090
   5 N :   -0.116700
   6 N :   -0.175536
   7 C :   -0.110173
   8 H :    0.132680
   9 H :    0.107372
  10 C :   -0.080396
  11 H :    0.121566
  12 H :    0.142698
  13 C :   -0.076385
  14 H :    0.138847
  15 H :    0.123336
  16 C :   -0.106180
  17 H :    0.106479
  18 H :    0.129862
  19 C :   -0.162122
  20 H :    0.145001
  21 H :    0.128189
  22 C :   -0.149298
  23 H :    0.159001
  24 H :    0.134188
  25 C :   -0.090411
  26 H :    0.124852
  27 H :    0.147470
  28 C :   -0.250118
  29 H :    0.161110
  30 H :    0.119964
  31 C :    0.201665
  32 C :   -0.197846
  33 H :    0.118599
  34 C :   -0.126808
  35 H :    0.122289
  36 C :   -0.120166
  37 H :    0.122579
  38 C :   -0.139825
  39 H :    0.124945
  40 C :   -0.217281
  41 H :    0.136479
  42 H :    0.173687
Sum of atomic charges:   -0.0000000

--------------------------------
MULLIKEN REDUCED ORBITAL CHARGES
--------------------------------
  0 Fes       :     6.430924  s :     6.430924
      pz      :     4.220761  p :    12.542601
      px      :     4.176965
      py      :     4.144876
      dz2     :     1.022823  d :     6.646441
      dxz     :     1.846342
      dyz     :     1.281634
      dx2y2   :     1.345076
      dxy     :     1.150566
      f0      :     0.000096  f :     0.000655
      f+1     :     0.000133
      f-1     :     0.000093
      f+2     :     0.000076
      f-2     :     0.000100
      f+3     :     0.000082
      f-3     :     0.000074

  1 Cls       :     5.948040  s :     5.948040
      pz      :     3.844127  p :    11.521783
      px      :     3.801641
      py      :     3.876015
      dz2     :     0.007622  d :     0.023543
      dxz     :     0.004671
      dyz     :     0.005684
      dx2y2   :     0.003033
      dxy     :     0.002532
      f0      :     0.000244  f :     0.001469
      f+1     :     0.000318
      f-1     :     0.000307
      f+2     :     0.000223
      f-2     :     0.000243
      f+3     :     0.000082
      f-3     :     0.000052

  2 Cls       :     5.945312  s :     5.945312
      pz      :     3.833889  p :    11.528541
      px      :     3.797419
      py      :     3.897232
      dz2     :     0.008234  d :     0.022510
      dxz     :     0.005415
      dyz     :     0.005069
      dx2y2   :     0.001372
      dxy     :     0.002420
      f0      :     0.000299  f :     0.001463
      f+1     :     0.000470
      f-1     :     0.000248
      f+2     :     0.000125
      f-2     :     0.000247
      f+3     :     0.000027
      f-3     :     0.000048

  3 S s       :     5.784622  s :     5.784622
      pz      :     3.330558  p :    10.130411
      px      :     3.219586
      py      :     3.580267
      dz2     :     0.025427  d :     0.156088
      dxz     :     0.042254
      dyz     :     0.028831
      dx2y2   :     0.029008
      dxy     :     0.030569
      f0      :     0.001814  f :     0.016120
      f+1     :     0.002714
      f-1     :     0.001886
      f+2     :     0.002324
      f-2     :     0.003181
      f+3     :     0.001940
      f-3     :     0.002259

  4 O s       :     3.770704  s :     3.770704
      pz      :     1.206204  p :     4.491039
      px      :     1.774357
      py      :     1.510478
      dz2     :     0.009131  d :     0.039442
      dxz     :     0.006979
      dyz     :     0.013011
      dx2y2   :     0.005627
      dxy     :     0.004694
      f0      :     0.000406  f :     0.001904
      f+1     :     0.000267
      f-1     :     0.000398
      f+2     :     0.000301
      f-2     :     0.000256
      f+3     :     0.000137
      f-3     :     0.000140

  5 N s       :     3.430995  s :     3.430995
      pz      :     1.107024  p :     3.593007
      px      :     1.386755
      py      :     1.099228
      dz2     :     0.019257  d :     0.088828
      dxz     :     0.015923
      dyz     :     0.022103
      dx2y2   :     0.013749
      dxy     :     0.017796
      f0      :     0.000654  f :     0.003870
      f+1     :     0.000374
      f-1     :     0.000724
      f+2     :     0.000516
      f-2     :     0.000580
      f+3     :     0.000524
      f-3     :     0.000498

  6 N s       :     3.417277  s :     3.417277
      pz      :     1.141518  p :     3.688324
      px      :     1.233019
      py      :     1.313787
      dz2     :     0.010980  d :     0.066873
      dxz     :     0.013295
      dyz     :     0.016174
      dx2y2   :     0.014866
      dxy     :     0.011558
      f0      :     0.000234  f :     0.003062
      f+1     :     0.000477
      f-1     :     0.000476
      f+2     :     0.000570
      f-2     :     0.000548
      f+3     :     0.000285
      f-3     :     0.000473

  7 C s       :     3.126772  s :     3.126772
      pz      :     0.974449  p :     2.865079
      px      :     1.029717
      py      :     0.860913
      dz2     :     0.026586  d :     0.110540
      dxz     :     0.010623
      dyz     :     0.021380
      dx2y2   :     0.031432
      dxy     :     0.020518
      f0      :     0.000728  f :     0.007781
      f+1     :     0.000435
      f-1     :     0.001759
      f+2     :     0.001106
      f-2     :     0.001344
      f+3     :     0.001136
      f-3     :     0.001274

  8 H s       :     0.841495  s :     0.841495
[...]
 84:   1337.77   0.000769    3.89  0.000179  ( 0.008947 -0.009609 -0.002669)
 85:   1341.83   0.000711    3.60  0.000165  (-0.001675  0.002961 -0.012405)
 86:   1362.62   0.000303    1.53  0.000069  (-0.005640 -0.005746  0.002118)
 87:   1365.39   0.000901    4.55  0.000206  (-0.005703 -0.012999 -0.002110)
 88:   1368.97   0.000072    0.36  0.000016  (-0.000333 -0.003610 -0.001799)
 89:   1386.49   0.000957    4.84  0.000215  (-0.000046  0.000963  0.014644)
 90:   1399.01   0.000858    4.34  0.000191  (-0.007631 -0.011542 -0.000048)
 91:   1413.81   0.000603    3.05  0.000133  ( 0.004739  0.009269 -0.004971)
 92:   1423.06   0.000034    0.17  0.000007  (-0.000441 -0.002312 -0.001353)
 93:   1437.15   0.000279    1.41  0.000061  ( 0.003172 -0.005309  0.004726)
 94:   1458.51   0.000385    1.95  0.000082  ( 0.002561  0.002977  0.008186)
 95:   1471.82   0.001385    7.00  0.000294  (-0.001504  0.007770 -0.015198)
 96:   1473.72   0.003543   17.91  0.000750  ( 0.022303  0.015883  0.000791)
 97:   1480.44   0.001932    9.76  0.000407  (-0.005051 -0.009627  0.017001)
 98:   1482.84   0.010437   52.74  0.002196  (-0.046044 -0.004076  0.007729)
 99:   1484.46   0.000607    3.07  0.000128  ( 0.004768  0.001031 -0.010186)
100:   1486.43   0.000311    1.57  0.000065  ( 0.004803 -0.006021 -0.002432)
101:   1497.28   0.000784    3.96  0.000163  ( 0.000418 -0.008993 -0.009074)
102:   1498.13   0.003752   18.96  0.000781  (-0.013370  0.009816 -0.022502)
103:   1505.49   0.002205   11.14  0.000457  ( 0.009421  0.018359 -0.005589)
104:   1521.29   0.008649   43.71  0.001774  ( 0.036648  0.018201  0.009988)
105:   1638.83   0.000853    4.31  0.000162  (-0.008980 -0.002134 -0.008788)
106:   1655.24   0.009185   46.42  0.001732  ( 0.035887  0.020533  0.004712)
107:   2985.15   0.005177   26.16  0.000541  ( 0.018739  0.011349  0.007825)
108:   3016.03   0.001552    7.84  0.000161  (-0.005662 -0.006725 -0.009125)
109:   3022.17   0.010724   54.19  0.001107  ( 0.029553  0.014809 -0.003825)
110:   3030.38   0.003010   15.21  0.000310  ( 0.009564 -0.012169  0.008389)
111:   3036.36   0.003593   18.16  0.000369  ( 0.018525 -0.001088 -0.004989)
112:   3038.06   0.003613   18.26  0.000371  ( 0.011326  0.010167 -0.011809)
113:   3047.27   0.012098   61.14  0.001239  (-0.035055  0.002255 -0.002241)
114:   3048.39   0.005503   27.81  0.000563  (-0.008894  0.013769 -0.017165)
115:   3095.72   0.001275    6.44  0.000128  ( 0.009407  0.004798  0.004121)
116:   3102.83   0.000631    3.19  0.000064  ( 0.000746 -0.007753  0.001685)
117:   3118.84   0.001588    8.02  0.000159  ( 0.000409 -0.011305 -0.005558)
118:   3120.34   0.004591   23.20  0.000459  (-0.005321 -0.002412  0.020616)
119:   3123.45   0.003727   18.83  0.000372  ( 0.008256  0.016502  0.005645)
120:   3132.06   0.000332    1.68  0.000033  (-0.002129  0.003518  0.004016)
121:   3140.66   0.000366    1.85  0.000036  ( 0.002214  0.001095 -0.005499)
122:   3145.66   0.000927    4.69  0.000092  ( 0.002326 -0.001106 -0.009238)
123:   3184.76   0.000469    2.37  0.000046  (-0.005888 -0.002539 -0.002193)
124:   3193.29   0.000042    0.21  0.000004  (-0.000030 -0.000752  0.001872)
125:   3202.15   0.002339   11.82  0.000228  ( 0.001120 -0.006014  0.013801)
126:   3215.55   0.003135   15.85  0.000304  (-0.014747 -0.009315  0.000222)
127:   3225.13   0.000550    2.78  0.000053  (-0.002348  0.001443 -0.006755)
128:   3432.49   0.002704   13.66  0.000246  ( 0.001514  0.002139  0.015458)

* The epsilon (eps) is given for a Dirac delta lineshape.
** The dipole moment derivative (T) already includes vibrational overlap.

The first frequency considered to be a vibration is 6
The total number of vibrations considered is 123


--------------------------
THERMOCHEMISTRY AT 298.15K
--------------------------

Temperature         ...   298.15 K
Pressure            ...     1.00 atm
Total Mass          ...   393.16 AMU
Quasi RRHO          ...     True
Cut-Off Frequency   ...     1.00 cm^-1

Throughout the following assumptions are being made:
  (1) The electronic state is orbitally nondegenerate
  (2) There are no thermally accessible electronically excited states
  (3) Hindered rotations indicated by low frequency modes are not
      treated as such but are treated as vibrations and this may
      cause some error
  (4) All equations used are the standard statistical mechanics
      equations for an ideal gas
  (5) All vibrations are strictly harmonic

freq.      13.46  E(vib)   ...       0.57 
freq.      20.55  E(vib)   ...       0.56 
freq.      28.06  E(vib)   ...       0.55 
freq.      35.89  E(vib)   ...       0.54 
freq.      55.77  E(vib)   ...       0.52 
freq.      84.09  E(vib)   ...       0.48 
freq.     102.70  E(vib)   ...       0.46 
freq.     104.88  E(vib)   ...       0.46 
freq.     117.00  E(vib)   ...       0.44 
freq.     125.36  E(vib)   ...       0.43 
freq.     154.14  E(vib)   ...       0.40 
freq.     157.12  E(vib)   ...       0.40 
freq.     168.63  E(vib)   ...       0.38 
freq.     172.91  E(vib)   ...       0.38 
freq.     186.90  E(vib)   ...       0.36 
freq.     227.60  E(vib)   ...       0.33 
freq.     254.98  E(vib)   ...       0.30 
freq.     266.64  E(vib)   ...       0.29 
freq.     283.25  E(vib)   ...       0.28 
freq.     304.62  E(vib)   ...       0.26 
freq.     316.21  E(vib)   ...       0.25 
freq.     333.36  E(vib)   ...       0.24 
freq.     380.77  E(vib)   ...       0.21 
freq.     383.72  E(vib)   ...       0.20 
freq.     389.30  E(vib)   ...       0.20 
freq.     408.92  E(vib)   ...       0.19 
freq.     431.17  E(vib)   ...       0.18 
freq.     445.10  E(vib)   ...       0.17 
freq.     469.15  E(vib)   ...       0.16 
freq.     482.05  E(vib)   ...       0.15 
freq.     487.39  E(vib)   ...       0.15 
freq.     499.51  E(vib)   ...       0.14 
freq.     508.51  E(vib)   ...       0.14 
freq.     580.99  E(vib)   ...       0.11 
freq.     618.17  E(vib)   ...       0.09 
freq.     627.44  E(vib)   ...       0.09 
freq.     707.90  E(vib)   ...       0.07 
freq.     717.39  E(vib)   ...       0.07 
freq.     754.42  E(vib)   ...       0.06 
freq.     793.42  E(vib)   ...       0.05 
freq.     806.60  E(vib)   ...       0.05 
freq.     813.58  E(vib)   ...       0.05 
freq.     848.84  E(vib)   ...       0.04 
freq.     852.78  E(vib)   ...       0.04 
freq.     892.14  E(vib)   ...       0.03 
freq.     908.71  E(vib)   ...       0.03 
freq.     920.94  E(vib)   ...       0.03 
freq.     935.80  E(vib)   ...       0.03 
freq.     963.18  E(vib)   ...       0.03 
freq.     965.80  E(vib)   ...       0.03 
freq.     979.01  E(vib)   ...       0.03 
freq.     994.92  E(vib)   ...       0.02 
freq.    1016.68  E(vib)   ...       0.02 
freq.    1026.98  E(vib)   ...       0.02 
freq.    1048.86  E(vib)   ...       0.02 
freq.    1058.31  E(vib)   ...       0.02 
freq.    1060.14  E(vib)   ...       0.02 
freq.    1072.61  E(vib)   ...       0.02 
freq.    1078.90  E(vib)   ...       0.02 
freq.    1089.06  E(vib)   ...       0.02 
freq.    1107.87  E(vib)   ...       0.02 
freq.    1114.29  E(vib)   ...       0.01 
freq.    1119.72  E(vib)   ...       0.01 
freq.    1126.92  E(vib)   ...       0.01 
freq.    1140.55  E(vib)   ...       0.01 
freq.    1158.64  E(vib)   ...       0.01 
freq.    1173.56  E(vib)   ...       0.01 
freq.    1180.14  E(vib)   ...       0.01 
freq.    1181.43  E(vib)   ...       0.01 
freq.    1210.63  E(vib)   ...       0.01 
freq.    1230.06  E(vib)   ...       0.01 
freq.    1236.76  E(vib)   ...       0.01 
freq.    1259.15  E(vib)   ...       0.01 
freq.    1285.41  E(vib)   ...       0.01 
freq.    1288.60  E(vib)   ...       0.01 
freq.    1304.24  E(vib)   ...       0.01 
freq.    1327.98  E(vib)   ...       0.01 
freq.    1334.34  E(vib)   ...       0.01 
freq.    1337.77  E(vib)   ...       0.01 
freq.    1341.83  E(vib)   ...       0.01 
freq.    1362.62  E(vib)   ...       0.01 
freq.    1365.39  E(vib)   ...       0.01 
freq.    1368.97  E(vib)   ...       0.01 
freq.    1386.49  E(vib)   ...       0.00 
freq.    1399.01  E(vib)   ...       0.00 
freq.    1413.81  E(vib)   ...       0.00 
freq.    1423.06  E(vib)   ...       0.00 
freq.    1437.15  E(vib)   ...       0.00 
freq.    1458.51  E(vib)   ...       0.00 
freq.    1471.82  E(vib)   ...       0.00 
freq.    1473.72  E(vib)   ...       0.00 
freq.    1480.44  E(vib)   ...       0.00 
freq.    1482.84  E(vib)   ...       0.00 
freq.    1484.46  E(vib)   ...       0.00 
freq.    1486.43  E(vib)   ...       0.00 
freq.    1497.28  E(vib)   ...       0.00 
freq.    1498.13  E(vib)   ...       0.00 
freq.    1505.49  E(vib)   ...       0.00 
freq.    1521.29  E(vib)   ...       0.00 
freq.    1638.83  E(vib)   ...       0.00 
freq.    1655.24  E(vib)   ...       0.00 
freq.    2985.15  E(vib)   ...       0.00 
freq.    3016.03  E(vib)   ...       0.00 
freq.    3022.17  E(vib)   ...       0.00 
freq.    3030.38  E(vib)   ...       0.00 
freq.    3036.36  E(vib)   ...       0.00 
freq.    3038.06  E(vib)   ...       0.00 
freq.    3047.27  E(vib)   ...       0.00 
freq.    3048.39  E(vib)   ...       0.00 
freq.    3095.72  E(vib)   ...       0.00 
freq.    3102.83  E(vib)   ...       0.00 
freq.    3118.84  E(vib)   ...       0.00 
freq.    3120.34  E(vib)   ...       0.00 
freq.    3123.45  E(vib)   ...       0.00 
freq.    3132.06  E(vib)   ...       0.00 
freq.    3140.66  E(vib)   ...       0.00 
freq.    3145.66  E(vib)   ...       0.00 
freq.    3184.76  E(vib)   ...       0.00 
freq.    3193.29  E(vib)   ...       0.00 
freq.    3202.15  E(vib)   ...       0.00 
freq.    3215.55  E(vib)   ...       0.00 
freq.    3225.13  E(vib)   ...       0.00 
freq.    3432.49  E(vib)   ...       0.00 

------------
INNER ENERGY
------------

The inner energy is: U= E(el) + E(ZPE) + E(vib) + E(rot) + E(trans)
    E(el)   - is the total energy from the electronic structure calculation
              = E(kin-el) + E(nuc-el) + E(el-el) + E(nuc-nuc)
    E(ZPE)  - the the zero temperature vibrational energy from the frequency calculation
    E(vib)  - the the finite temperature correction to E(ZPE) due to population
              of excited vibrational states
    E(rot)  - is the rotational thermal energy
    E(trans)- is the translational thermal energy

Summary of contributions to the inner energy U:
Electronic energy                ...  -3312.63031157 Eh
Zero point energy                ...      0.35644412 Eh     223.67 kcal/mol
Thermal vibrational correction   ...      0.01932472 Eh      12.13 kcal/mol
Thermal rotational correction    ...      0.00141627 Eh       0.89 kcal/mol
Thermal translational correction ...      0.00141627 Eh       0.89 kcal/mol
-----------------------------------------------------------------------
Total thermal energy                  -3312.25171018 Eh


Summary of corrections to the electronic energy:
(perhaps to be used in another calculation)
Total thermal correction                  0.02215726 Eh      13.90 kcal/mol
Non-thermal (ZPE) correction              0.35644412 Eh     223.67 kcal/mol
-----------------------------------------------------------------------
Total correction                          0.37860138 Eh     237.58 kcal/mol


--------
ENTHALPY
--------

The enthalpy is H = U + kB*T
                kB is Boltzmann's constant
Total thermal energy              ...  -3312.25171018 Eh 
Thermal Enthalpy correction       ...      0.00094421 Eh       0.59 kcal/mol
-----------------------------------------------------------------------
Total Enthalpy                    ...  -3312.25076598 Eh


Note: Only C1 symmetry has been detected, increase convergence thresholds 
      if your molecule has a higher symmetry. Symmetry factor of 1.0 is   
      used for the rotational entropy correction. 
 

Note: Rotational entropy computed according to Herzberg 
Infrared and Raman Spectra, Chapter V,1, Van Nostrand Reinhold, 1945 
Point Group:  C1, Symmetry Number:   1  
Rotational constants in cm-1:     0.016469     0.003293     0.003177 

Vibrational entropy computed according to the QRRHO of S. Grimme
Chem.Eur.J. 2012 18 9955 using a reference frequency of 100.0 cm-1


-------
ENTROPY
-------

The entropy contributions are T*S = T*(S(el)+S(vib)+S(rot)+S(trans))
     S(el)   - electronic entropy
     S(vib)  - vibrational entropy
     S(rot)  - rotational entropy
     S(trans)- translational entropy
The entropies will be listed as multiplied by the temperature to get
units of energy

Electronic entropy                ...      0.00000000 Eh      0.00 kcal/mol
Vibrational entropy               ...      0.03518875 Eh     22.08 kcal/mol
Rotational entropy                ...      0.01686318 Eh     10.58 kcal/mol
Translational entropy             ...      0.02081018 Eh     13.06 kcal/mol
-----------------------------------------------------------------------
Final entropy term                ...      0.07286211 Eh     45.72 kcal/mol

In case the symmetry of your molecule has not been determined correctly
or in case you have a reason to use a different symmetry number we print 
out the resulting rotational entropy values for sn=1,12:

 non-linear molecules -----------------------------------
|  sn= 1 | S(rot)=       0.01686318 Eh     10.58 kcal/mol|
|  sn= 2 | S(rot)=       0.01620872 Eh     10.17 kcal/mol|
|  sn= 3 | S(rot)=       0.01582589 Eh      9.93 kcal/mol|
|  sn= 4 | S(rot)=       0.01555427 Eh      9.76 kcal/mol|
|  sn= 5 | S(rot)=       0.01534358 Eh      9.63 kcal/mol|
|  sn= 6 | S(rot)=       0.01517144 Eh      9.52 kcal/mol|
|  sn= 7 | S(rot)=       0.01502589 Eh      9.43 kcal/mol|
|  sn= 8 | S(rot)=       0.01489981 Eh      9.35 kcal/mol|
|  sn= 9 | S(rot)=       0.01478860 Eh      9.28 kcal/mol|
|  sn=10 | S(rot)=       0.01468912 Eh      9.22 kcal/mol|
|  sn=11 | S(rot)=       0.01459913 Eh      9.16 kcal/mol|
|  sn=12 | S(rot)=       0.01451698 Eh      9.11 kcal/mol|
 linear molecules ---------------------------------------
|  Dinfh | S(rot)=       0.01075647 Eh      6.75 kcal/mol|
|  Cinfv | S(rot)=       0.01141093 Eh      7.16 kcal/mol|
 --------------------------------------------------------


-------------------
GIBBS FREE ENERGY
-------------------

The Gibbs free energy is G = H - T*S

Total enthalpy                    ...  -3312.25076598 Eh 
Total entropy correction          ...     -0.07286211 Eh    -45.72 kcal/mol
-----------------------------------------------------------------------
Final Gibbs free energy         ...  -3312.32362808 Eh

For completeness - the Gibbs free energy minus the electronic energy
G-E(el)                           ...      0.30668348 Eh    192.45 kcal/mol


Maximum memory used throughout the entire PROP-calculation: 550.0 MB

--------------------------------
SUGGESTED CITATIONS FOR THIS RUN
--------------------------------

Below you find a list of papers that are relevant to this ORCA run
We neither can nor want to force you to cite these papers, but we appreciate if you do
You receive ORCA, which is the product of decades of hard work by many enthusiastic individuals, for free
The only thing we kindly ask in return is that you cite our papers,
We deeply appreciate it, if you show your appreciation for ORCA by not just citing the generic ORCA reference.

Please note that relegating all ORCA citations to the supporting information does *not* help us.
SI sections are not indexed - citations you put there will not count into any citation statistics
But we need these citations in order to attract the funding resources that allow us to do what we are doing

Therefore, if you are a happy ORCA user, please consider citing a few of the papers listed below in the main body of your paper

In addition to the list printed below, the program has created the file SUVROS-S5.bibtex that contains the list in bibtex format
You can import this file easily into all common literature databanks and citation aid programs


List of essential papers. We consider these as the minimum necessary citations

  1. Neese,F.
     Software update: the ORCA program system, version 5.0
     WIRES Comput. Molec. Sci., 2022 12(1)e1606
     doi.org/10.1002/wcms.1606

List of papers to cite with high priority. The work reported in these papers was absolutely
necessary for this run to complete.
Our perspective: the developers of density functionals and basis sets usually get cited in chemistry papers
Good! But without the algorithms to do something with them, the functionals or basis sets would not do anything.
Hence, in our opinion, the algorithm design and method developments papers are equally worthy of getting cited

  1. Neese,F.
     An improvement of the resolution of the identity approximation for the formation of the Coulomb matrix
     J. Comp. Chem., 2003 24(14)1740-1747
     doi.org/10.1002/jcc.10318
  2. Neese,F.; Wennmohs,F.; Hansen,A.; Becker,U.
     Efficient, approximate and parallel Hartree-Fock and hybrid DFT calculations. A 'chain-of-spheres' algorithm for the Hartree-Fock exchange
     Chem. Phys., 2009 356(1-3)98-109
     doi.org/10.1016/j.chemphys.2008.10.036
  3. Bykov,D.; Petrenko,T.; Izsak,R.; Kossmann,S.; Becker,U.; Valeev,E.; Neese,F.
     Efficient implementation of the analytic second derivatives of Hartree-Fock and hybrid DFT energies: a detailed analysis of different approximations
     Molec. Phys., 2015 113 1961-1977
     doi.org/10.1080/00268976.2015.1025114
  4. Helmich-Paris,B.; de Souza,B.; Neese,F.; Izsák,R.
     An improved chain of spheres for exchange algorithm
     J. Chem. Phys., 2021 155 104109
     doi.org/doi: 10.1063/5.0058766.
  5. Neese,F.
     The SHARK Integral Generation and Digestion System
     J. Comp. Chem., 2022  1-16
     doi.org/10.1002/jcc.26942

List of suggested additional citations. These are papers that are important in the 'surrounding' of 
of this run, or papers that preceded the highly important papers. If you like your results we are grateful for a citation.

  1. Izsak,R.; Neese,F.
     An overlap fitted chain of spheres exchange method
     J. Chem. Phys., 2011 135 144105
     doi.org/10.1063/1.3646921
  2. Izsak,R.; Hansen,A.; Neese,F.
     The resolution of identity and chain of spheres approximations for the LPNO-CCSD singles Fock term
     Molec. Phys., 2012 110 2413-2417
     doi.org/10.1080/00268976.2012.687466
  3. Neese,F.
     The ORCA program system
     WIRES Comput. Molec. Sci., 2012 2(1)73-78
     doi.org/10.1002/wcms.81
  4. Izsak,R.; Neese,F.; Klopper,W.
     Robust fitting techniques in the chain of spheres approximation to the Fock exchange: The role of the complementary space
     J. Chem. Phys., 2013 139 
     doi.org/10.1063/1.4819264
  5. Neese,F.
     Software update: the ORCA program system, version 4.0
     WIRES Comput. Molec. Sci., 2018 8(1)1-6
     doi.org/10.1002/wcms.1327
  6. Neese,F.; Wennmohs,F.; Becker,U.; Riplinger,C.
     The ORCA quantum chemistry program package
     J. Chem. Phys., 2020 152 Art. No. L224108
     doi.org/10.1063/5.0004608

List of optional additional citations

  1. Neese,F.
     Approximate second-order SCF convergence for spin unrestricted wavefunctions
     Chem. Phys. Lett., 2000 325(1-3)93-98
     doi.org/10.1016/s0009-2614(00)00662-x

Timings for individual modules:

Sum of individual times          ...     4399.229 sec (=  73.320 min)
Startup calculation              ...      138.544 sec (=   2.309 min)   3.1 %
SCF iterations                   ...     1956.122 sec (=  32.602 min)  44.5 %
Property integrals               ...      545.127 sec (=   9.085 min)  12.4 %
SCF Response                     ...      844.494 sec (=  14.075 min)  19.2 %
Property calculations            ...      435.108 sec (=   7.252 min)   9.9 %
SCF Gradient evaluation          ...      479.455 sec (=   7.991 min)  10.9 %
Geometry relaxation              ...        0.377 sec (=   0.006 min)   0.0 %
                             ****ORCA TERMINATED NORMALLY****
TOTAL RUN TIME: 0 days 1 hours 13 minutes 58 seconds 794 msec
