
                                 *****************
                                 * O   R   C   A *
                                 *****************

                                            #,                                       
                                            ###                                      
                                            ####                                     
                                            #####                                    
                                            ######                                   
                                           ########,                                 
                                     ,,################,,,,,                         
                               ,,#################################,,                 
                          ,,##########################################,,             
                       ,#########################################, ''#####,          
                    ,#############################################,,   '####,        
                  ,##################################################,,,,####,       
                ,###########''''           ''''###############################       
              ,#####''   ,,,,##########,,,,          '''####'''          '####       
            ,##' ,,,,###########################,,,                        '##       
           ' ,,###''''                  '''############,,,                           
         ,,##''                                '''############,,,,        ,,,,,,###''
      ,#''                                            '''#######################'''  
     '                                                          ''''####''''         
             ,#######,   #######,   ,#######,      ##                                
            ,#'     '#,  ##    ##  ,#'     '#,    #''#        ,####,   ,####,        
            ##       ##  ##   ,#'  ##            #'  '#       #'       #'  '#        
            ##       ##  #######   ##           ,######,      #####,   #    #        
            '#,     ,#'  ##    ##  '#,     ,#' ,#      #,     #,   #   #,  ,#        
             '#######'   ##     ##  '#######'  #'      '#     '####' # '####'        



                #########################################################
                #                        -***-                          #
                #          Department of theory and spectroscopy        #
                #                                                       #
                #                      Frank Neese                      #
                #                                                       #
                #     Directorship, Architecture, Infrastructure        #
                #                    SHARK, DRIVERS                     #
                #        Core code/Algorithms in most modules           #
                #                                                       #
                #        Max Planck Institute fuer Kohlenforschung      #
                #                Kaiser Wilhelm Platz 1                 #
                #                 D-45470 Muelheim/Ruhr                 #
                #                      Germany                          #
                #                                                       #
                #                  All rights reserved                  #
                #                        -***-                          #
                #########################################################


                         Program Version 6.0.1  -  RELEASE   -


 With contributions from (in alphabetic order):
[Max-Planck-Institut fuer Kohlenforschung]                               
  Daniel Aravena         : Magnetic Suceptibility                        
  Michael Atanasov       : Ab Initio Ligand Field Theory (pilot matlab implementation)
  Alexander A. Auer      : GIAO ZORA, VPT2 properties, NMR spectrum      
  Ute Becker             : All parallelization in ORCA, NUMFREQ, NUMCALC 
  Giovanni Bistoni       : ED, misc. LED, open-shell LED, HFLD           
  Martin Brehm           : Molecular dynamics                            
  Dmytro Bykov           : pre 5.0 version of the SCF Hessian            
  Marcos Casanova-Páez   : Triplet and SCS-CIS(D). UHF-(DLPNO)-IP/EA/STEOM-CCSD. UHF-CVS-IP/STEOM-CCSD   
  Vijay G. Chilkuri      : MRCI spin determinant printing, contributions to CSF-ICE 
  Pauline Colinet        : FMM embedding                                 
  Dipayan Datta          : RHF DLPNO-CCSD density                        
  Achintya Kumar Dutta   : EOM-CC, STEOM-CC                              
  Nicolas Foglia         : Exact transition moments, OPA infrastructure, MCD improvements    
  Dmitry Ganyushin       : Spin-Orbit,Spin-Spin,Magnetic field MRCI      
  Miquel Garcia-Rates    : C-PCM and meta-GGA Hessian, CCSD/C-PCM, Gaussian charge scheme 
  Tiago L. C. Gouveia    : GS-ROHF, GS-ROCIS                             
  Yang Guo               : DLPNO-NEVPT2, F12-NEVPT2, CIM, IAO-localization        
  Andreas Hansen         : Spin unrestricted coupled pair/coupled cluster methods 
  Ingolf Harden          : AUTO-CI MPn and infrastructure                
  Benjamin Helmich-Paris : MC-RPA, TRAH-(SCF,CASSCF), AVAS, COSX integrals, SCF dyn. polar. 
  Lee Huntington         : MR-EOM, pCC                                   
  Robert Izsak           : Overlap fitted RIJCOSX, COSX-SCS-MP3, EOM     
  Riya Kayal             : Wick's Theorem for AUTO-CI, AUTO-CI UHF-CCSDT 
  Emily Kempfer          : AUTO-CI, RHF CISDT and CCSDT                  
  Christian Kollmar      : KDIIS, OOCD, Brueckner-CCSD(T), CCSD density, CASPT2, CASPT2-K, improved NEVPT2 
  Axel Koslowski         : Symmetry handling                             
  Simone Kossmann        : meta-GGA functionals, TD-DFT gradient, OOMP2, (MP2 Hessian; deprecated post 5.0) 
  Lucas Lang             : DCDCAS                                        
  Marvin Lechner         : AUTO-CI (C++ implementation), FIC-MRCC        
  Spencer Leger          : CASSCF response                               
  Dagmar Lenk            : GEPOL surface, SMD, ORCA-2-JSON               
  Dimitrios Liakos       : Extrapolation schemes; Compound Job, initial MDCI parallelization 
  Dimitrios Manganas     : Further ROCIS development; embedding schemes. LFT, Crystal Embedding 
  Dimitrios Pantazis     : SARC Basis sets                               
  Anastasios Papadopoulos: AUTO-CI, single reference methods and gradients 
  Taras Petrenko         : pre 6.0 DFT Hessian and TD-DFT gradient, (ASA, deprecated), ECA, 1-Electron XAS/XES, NRVS 
  Peter Pinski           : DLPNO-MP2, DLPNO-MP2 Gradient                 
  Christoph Reimann      : Effective Core Potentials                     
  Marius Retegan         : Local ZFS, SOC                                
  Christoph Riplinger    : Optimizer, TS searches, QM/MM, DLPNO-CCSD(T), (RO)-DLPNO pert. Triples 
  Michael Roemelt        : Original ROCIS implementation                 
  Masaaki Saitow         : Open-shell DLPNO-CCSD energy and density      
  Barbara Sandhoefer     : DKH picture change effects                    
  Kantharuban Sivalingam : CASSCF convergence/infrastructure, NEVPT2 and variants, FIC-MRCI 
  Bernardo de Souza      : ESD, SOC TD-DFT                               
  Georgi L. Stoychev     : AutoAux, RI-MP2 NMR, DLPNO-MP2 response, X2C  
  Van Anh Tran           : RI-MP2 g-tensors                              
  Willem Van den Heuvel  : Paramagnetic NMR                              
  Zikuan Wang            : NOTCH, Electric field optimization            
  Frank Wennmohs         : Technical directorship and infrastructure     
  Hang Xu                : AUTO-CI-Response properties                   
                                                                         
[FACCTs GmbH]                                                            
  Markus Bursch, Miquel Garcia-Rates, Christoph Riplinger, Bernardo de Souza, Georgi L. Stoychev 
                                                                 
  APM, Basis sets (HGBS, AHGBS, def-TZVP (Ac-Lr), def2-XVPD (La-Lu)), CI-OPT, improved COSX, DLPNO-Multilevel,           
  DOCKER, DRACO, updates on ESD, GOAT, IRC, LR-CPCM, MBIS, meta-GGA TD-DFT gradient, ML-optimized integration grids, 
  MM, NACMEs, nearIR, NEB, NEB-TS, NL-DFT gradient (VV10), 2- and 3-layer-ONIOM, interface openCOSMO-RS, QMMM,   
  Crystal-QMMM, SF, symmetry and pop. for TD-DFT, r2SCAN hybrids, SOLVATOR                                   
                                                                         
[Other institutions]                                                     
  V. Asgeirsson          : NEB                                           
  Christoph Bannwarth    : sTDA-DFT, sTD-DFT, PBEh-3c, B97-3c, D3        
  Sebastian Ehlert       : rSCAN, r2SCAN, r2SCAN-3c, D4, dhf basis sets  
  Marvin Friede          : D4 for Fr, Ra, Ac-Lr                          
  Lars Goerigk           : TD-DFT with DH, B97 family of functionals     
  Stefan Grimme          : VdW corrections, initial TS optimization, DFT functionals, gCP, sTDA/sTD-DF 
  Waldemar Hujo          : DFT-NL                                        
  H. Jonsson             : NEB                                           
  Holger Kruse           : gCP                                           
  Marcel Mueller         : wB97X-3c, vDZP basis set                      
  Hagen Neugebauer       : wr2SCAN                                       
  Tobias Risthaus        : range-separated hybrid DFT                    
  Lukas Wittmann         : regularized MP2, r2SCAN double-hybrids, wr2SCAN        
                                                                         
We gratefully acknowledge several colleagues who have allowed us to      
interface, adapt or use parts of their codes:                            
  Ed Valeev, F. Pavosevic, A. Kumar             : LibInt (2-el integral package), F12 methods 
  Garnet Chan, S. Sharma, J. Yang, R. Olivares  : DMRG                   
  Ulf Ekstrom                                   : XCFun DFT Library      
  Mihaly Kallay                                 : mrcc  (arbitrary order and MRCC methods)
  Frank Weinhold                                : gennbo (NPA and NBO analysis)           
  Simon Mueller                                 : openCOSMO-RS                            
  Christopher J. Cramer and Donald G. Truhlar   : smd solvation model                     
  S Lehtola, MJT Oliveira, MAL Marques          : LibXC Library                           
  Liviu Ungur et al                             : ANISO software                          


 Your calculation uses the libint2 library for the computation of 2-el integrals
 For citations please refer to: http://libint.valeyev.net

 Your ORCA version has been built with support for libXC version: 6.2.2
 For citations please refer to: https://libxc.gitlab.io

 This ORCA versions uses:
   CBLAS   interface :  Fast vector & matrix operations
   LAPACKE interface :  Fast linear algebra routines
   SCALAPACK package :  Parallel linear algebra routines
   Shared memory     :  Shared parallel matrices
   BLAS/LAPACK       :  OpenBLAS 0.3.27  USE64BITINT DYNAMIC_ARCH NO_AFFINITY Cooperlake SINGLE_THREADED
        Core in use  :  Cooperlake
   Copyright (c) 2011-2014, The OpenBLAS Project


NOTE: MaxCore=3600 MB was set to SCF,MP2,MDCI,CIPSI,MRCI and CIS
      => If you want to overwrite this, your respective input block should be placed after the MaxCore statement
Warning: RI is on but no J-basis has been assigned. Assigning Def2/J (nothing to worry about!)
================================================================================

----- Orbital basis set information -----
Your calculation utilizes the basis: def2-TZVP
   F. Weigend and R. Ahlrichs, Phys. Chem. Chem. Phys. 7, 3297 (2005).

----- AuxJ basis set information -----
Your calculation utilizes the auxiliary basis: def2/J
   F. Weigend, Phys. Chem. Chem. Phys. 8, 1057 (2006).

================================================================================
                                        WARNINGS
                       Please study these warnings very carefully!
================================================================================


WARNING: your system is open-shell and RHF/RKS was chosen
  ===> : WILL SWITCH to UHF/UKS


WARNING: Geometry Optimization
  ===> : Switching off AutoStart
         For restart on a previous wavefunction, please use MOREAD

================================================================================
                                       INPUT FILE
================================================================================
NAME = BIKZUQ10-S6.inp
|  1> ! PBE0 def2-TZVP  Opt Freq DEFGRID3
|  2> 
|  3> %maxcore 3600
|  4> 
|  5> %pal
|  6>     nprocs 16
|  7> end
|  8> 
|  9> *xyz 0 2
| 10> Mn 0.9829 3.1283 7.0277
| 11> N 0.6628 2.3312 9.1037
| 12> N 1.3028 1.2713 9.5985
| 13> N 2.1884 4.7737 7.9441
| 14> N 1.9186 6.0976 7.8837
| 15> N 2.7729 1.8557 6.8759
| 16> C 1.0367 1.1024 10.9309
| 17> C 0.1894 2.0859 11.3146
| 18> C -0.0113 2.8304 10.1593
| 19> C 2.8746 6.8208 8.5064
| 20> C 3.7254 5.9474 8.9688
| 21> C 3.326 4.6761 8.6343
| 22> C 3.8302 1.7731 6.4543
| 23> S 5.3619 1.678 5.8147
| 24> H 1.7027 0.7633 9.136
| 25> H 1.339 0.2753 11.2163
| 26> H -0.1118 2.3274 12.2985
| 27> H -0.4227 3.7289 9.9934
| 28> H 1.1264 6.4692 7.5197
| 29> H 2.8458 7.8206 8.6863
| 30> H 4.3831 6.0062 9.2907
| 31> H 3.7224 3.879 8.6722
| 32> N 1.303 3.9253 4.9517
| 33> N -0.2225 1.4828 6.1113
| 34> N -0.807 4.4008 7.1795
| 35> N 0.663 4.9852 4.457
| 36> C 1.9771 3.4261 3.8962
| 37> N 0.0472 0.1589 6.1717
| 38> C -1.3602 1.5804 5.4212
| 39> C -1.8644 4.4834 7.6012
| 40> C 0.9291 5.1541 3.1245
| 41> H 0.2631 5.4932 4.9194
| 42> C 1.7765 4.1706 2.7408
| 43> H 2.3885 2.5276 4.062
| 44> C -0.9087 -0.5643 5.5491
| 45> H 0.8395 -0.2127 6.5358
| 46> C -1.7596 0.3091 5.0867
| 47> H -1.7566 2.3775 5.3832
| 48> S -3.3961 4.5785 8.2407
| 49> H 0.6268 5.9812 2.8392
| 50> H 2.0776 3.9291 1.7569
| 51> H -0.8799 -1.5641 5.3692
| 52> H -2.4173 0.2503 4.7648
| 53> *
| 54> 
| 55>                          ****END OF INPUT****
================================================================================

                       *****************************
                       * Geometry Optimization Run *
                       *****************************

Geometry optimization settings:
Update method            Update   .... BFGS
Choice of coordinates    CoordSys .... (2022) Redundant Internals
Initial Hessian          InHess   .... Almloef's Model
Max. no of cycles        MaxIter  .... 129

Convergence Tolerances:
Energy Change            TolE     ....  5.0000e-06 Eh
Max. Gradient            TolMAXG  ....  3.0000e-04 Eh/bohr
RMS Gradient             TolRMSG  ....  1.0000e-04 Eh/bohr
Max. Displacement        TolMAXD  ....  4.0000e-03 bohr
RMS Displacement         TolRMSD  ....  2.0000e-03 bohr
Strict Convergence                .... False

------------------------------------------------------------------------------
                        ORCA OPTIMIZATION COORDINATE SETUP
------------------------------------------------------------------------------

The optimization will be done in redundant internal coordinates (2022)
Making redundant internal coordinates   ...  (2022 redundants) done
Evaluating the initial hessian          ...  (Almloef) done
Evaluating the coordinates              ...  done
Calculating the B-matrix                .... done
Calculating the G-matrix                .... done
Diagonalizing the G-matrix              .... done
Small eigenvalue found = 6.649e-03
Small eigenvalue found = 9.781e-03
Small eigenvalue found = 1.040e-02
Small eigenvalue found = 1.512e-02
Small eigenvalue found = 1.816e-02
Small eigenvalue found = 1.960e-02
Small eigenvalue found = 2.244e-02
Small eigenvalue found = 2.544e-02
The first mode is                       ....  130
The number of degrees of freedom        ....  123

    -----------------------------------------------------------------
                    Redundant Internal Coordinates


    -----------------------------------------------------------------
         Definition                    Initial Value    Approx d2E/dq
    -----------------------------------------------------------------
      1. B(N   1,Mn  0)                  2.2467         0.243337   
      2. B(N   2,N   1)                  1.3333         0.617161   
      3. B(N   3,Mn  0)                  2.2361         0.252944   
      4. B(N   4,N   3)                  1.3525         0.575312   
      5. B(N   5,Mn  0)                  2.2015         0.287267   
      6. B(C   6,N   2)                  1.3692         0.604100   
      7. B(C   7,C   6)                  1.3537         0.714011   
      8. B(C   8,C   7)                  1.3890         0.627131   
      9. B(C   8,N   1)                  1.3483         0.652246   
     10. B(C   9,N   4)                  1.3508         0.646231   
     11. B(C  10,C   9)                  1.3040         0.856828   
     12. B(C  11,C  10)                  1.3739         0.662853   
     13. B(C  11,N   3)                  1.3342         0.686963   
     14. B(C  12,N   5)                  1.1413         1.395531   
     15. B(S  13,C  12)                  1.6626         0.618858   
     16. B(H  14,N   2)                  0.7949         0.953562   
     17. B(H  15,C   6)                  0.9257         0.658480   
     18. B(H  16,C   7)                  1.0569         0.406614   
     19. B(H  17,C   8)                  1.0020         0.497468   
     20. B(H  18,N   4)                  0.9477         0.543960   
     21. B(H  19,C   9)                  1.0163         0.472132   
     22. B(H  20,C  10)                  0.7346         1.328713   
     23. B(H  21,C  11)                  0.8910         0.747935   
     24. B(N  22,Mn  0)                  2.2467         0.243369   
     25. B(N  23,Mn  0)                  2.2362         0.252926   
     26. B(N  24,Mn  0)                  2.2014         0.287413   
     27. B(N  25,N  22)                  1.3333         0.617245   
     28. B(C  26,N  22)                  1.3482         0.652433   
     29. B(N  27,N  23)                  1.3524         0.575354   
     30. B(C  28,N  23)                  1.3342         0.686878   
     31. B(C  29,N  24)                  1.1414         1.394867   
     32. B(C  30,N  25)                  1.3693         0.603884   
     33. B(H  31,N  25)                  0.7949         0.953766   
     34. B(C  32,C  30)                  1.3537         0.713847   
     35. B(C  32,C  26)                  1.3891         0.626973   
     36. B(H  33,C  26)                  1.0020         0.497498   
     37. B(C  34,N  27)                  1.3507         0.646508   
     38. B(H  35,N  27)                  0.9478         0.543716   
     39. B(C  36,C  34)                  1.3041         0.856622   
     40. B(C  36,C  28)                  1.3739         0.662853   
     41. B(H  37,C  28)                  0.8910         0.747924   
     42. B(S  38,C  29)                  1.6626         0.618946   
     43. B(H  39,C  30)                  0.9257         0.658555   
     44. B(H  40,C  32)                  1.0569         0.406657   
     45. B(H  41,C  34)                  1.0163         0.472132   
     46. B(H  42,C  36)                  0.7346         1.328713   
     47. A(N   1,Mn  0,N   3)           87.6612         0.389517   
     48. A(N   3,Mn  0,N  24)           89.1252         0.401057   
     49. A(N   5,Mn  0,N  23)           89.1212         0.401015   
     50. A(N  22,Mn  0,N  23)           87.6599         0.389521   
     51. A(N   5,Mn  0,N  22)           91.4615         0.398307   
     52. A(N  23,Mn  0,N  24)           90.8784         0.401051   
     53. A(N   1,Mn  0,N   5)           88.5371         0.398298   
     54. A(N   1,Mn  0,N  24)           91.4625         0.398334   
     55. A(N   3,Mn  0,N   5)           90.8753         0.401020   
     56. A(N   3,Mn  0,N  22)           92.3407         0.389526   
     57. A(N   1,Mn  0,N  23)           92.3382         0.389512   
     58. A(N  22,Mn  0,N  24)           88.5390         0.398343   
     59. A(N   2,N   1,C   8)          104.1084         0.429093   
     60. A(Mn  0,N   1,C   8)          131.5526         0.410646   
     61. A(Mn  0,N   1,N   2)          123.8170         0.403980   
     62. A(N   1,N   2,C   6)          111.4632         0.423241   
     63. A(C   6,N   2,H  14)          125.8126         0.409586   
     64. A(N   1,N   2,H  14)          122.2464         0.408439   
     65. A(Mn  0,N   3,N   4)          126.4723         0.401742   
     66. A(Mn  0,N   3,C  11)          128.1587         0.417308   
     67. A(N   4,N   3,C  11)          105.3555         0.427683   
     68. A(N   3,N   4,H  18)          124.5919         0.365891   
     69. A(C   9,N   4,H  18)          123.9672         0.375679   
     70. A(N   3,N   4,C   9)          111.2418         0.423029   
     71. A(Mn  0,N   5,C  12)          145.1427         0.485696   
     72. A(N   2,C   6,C   7)          107.9306         0.440267   
     73. A(C   7,C   6,H  15)          140.0110         0.401363   
     74. A(N   2,C   6,H  15)          110.2903         0.387290   
     75. A(C   8,C   7,H  16)          127.6356         0.360969   
     76. A(C   6,C   7,H  16)          127.4631         0.369074   
     77. A(C   6,C   7,C   8)          104.1292         0.446194   
     78. A(C   7,C   8,H  17)          132.6605         0.373671   
     79. A(N   1,C   8,H  17)          114.0564         0.373849   
     80. A(N   1,C   8,C   7)          112.3647         0.436074   
     81. A(N   4,C   9,H  19)          126.0331         0.369909   
     82. A(N   4,C   9,C  10)          105.4634         0.460696   
     83. A(C  10,C   9,H  19)          127.9255         0.390913   
     84. A(C  11,C  10,H  20)          116.1691         0.449047   
     85. A(C   9,C  10,H  20)          133.3067         0.470584   
     86. A(C   9,C  10,C  11)          110.1056         0.465940   
     87. A(N   3,C  11,H  21)          117.8251         0.405079   
     88. A(C  10,C  11,H  21)          133.4790         0.405135   
     89. A(N   3,C  11,C  10)          107.8263         0.444603   
     90. L(N   5,C  12,S  13,Mn  0, 2) 181.1630         0.528894   
     91. L(N   5,C  12,S  13,Mn  0, 1) 178.8202         0.528894   
     92. A(N  25,N  22,C  26)          104.1148         0.429126   
     93. A(Mn  0,N  22,C  26)          131.5524         0.410677   
     94. A(Mn  0,N  22,N  25)          123.8115         0.403999   
     95. A(N  27,N  23,C  28)          105.3523         0.427679   
     96. A(Mn  0,N  23,C  28)          128.1549         0.417294   
     97. A(Mn  0,N  23,N  27)          126.4792         0.401742   
     98. A(Mn  0,N  24,C  29)          145.1417         0.485699   
     99. A(C  30,N  25,H  31)          125.8071         0.409576   
    100. A(N  22,N  25,H  31)          122.2561         0.408464   
    101. A(N  22,N  25,C  30)          111.4594         0.423224   
    102. A(C  32,C  26,H  33)          132.6509         0.373658   
    103. A(N  22,C  26,H  33)          114.0640         0.373871   
    104. A(N  22,C  26,C  32)          112.3668         0.436076   
    105. A(C  34,N  27,H  35)          123.9678         0.375677   
    106. A(N  23,N  27,H  35)          124.5848         0.365867   
    107. A(N  23,N  27,C  34)          111.2484         0.423067   
    108. A(C  36,C  28,H  37)          133.4766         0.405134   
    109. A(N  23,C  28,H  37)          117.8299         0.405069   
    110. A(N  23,C  28,C  36)          107.8260         0.444593   
    111. L(N  24,C  29,S  38,Mn  0, 2) 178.8496         0.528861   
    112. L(N  24,C  29,S  38,Mn  0, 1) 178.8232         0.528861   
    113. A(N  25,C  30,C  32)          107.9305         0.440220   
    114. A(C  32,C  30,H  39)          140.0150         0.401354   
    115. A(N  25,C  30,H  39)          110.2844         0.387274   
    116. A(C  26,C  32,C  30)          104.1246         0.446155   
    117. A(C  30,C  32,H  40)          127.4595         0.369066   
    118. A(C  26,C  32,H  40)          127.6419         0.360960   
    119. A(C  36,C  34,H  41)          127.9235         0.390896   
    120. A(N  27,C  34,H  41)          126.0359         0.369936   
    121. A(N  27,C  34,C  36)          105.4628         0.460712   
    122. A(C  34,C  36,H  42)          133.3094         0.470563   
    123. A(C  28,C  36,H  42)          116.1691         0.449047   
    124. A(C  28,C  36,C  34)          110.1032         0.465920   
    125. D(N   2,N   1,Mn  0,N  23)     76.2839         0.001817   
    126. D(C   8,N   1,Mn  0,N  24)    -22.4416         0.001817   
    127. D(N   2,N   1,Mn  0,N   3)   -103.7126         0.001817   
    128. D(N   2,N   1,Mn  0,N   5)    -12.7765         0.001817   
    129. D(C   8,N   1,Mn  0,N   5)    157.5589         0.001817   
    130. D(C   8,N   1,Mn  0,N  23)   -113.3807         0.001817   
    131. D(C   8,N   1,Mn  0,N   3)     66.6228         0.001817   
    132. D(N   2,N   1,Mn  0,N  24)    167.2230         0.001817   
    133. D(H  14,N   2,N   1,Mn  0)    -14.7519         0.036228   
    134. D(C   6,N   2,N   1,C   8)      0.1961         0.036228   
    135. D(C   6,N   2,N   1,Mn  0)    172.7531         0.036228   
    136. D(H  14,N   2,N   1,C   8)    172.6911         0.036228   
    137. D(N   4,N   3,Mn  0,N  24)    -27.0827         0.001842   
    138. D(N   4,N   3,Mn  0,N   1)   -118.5823         0.001842   
    139. D(N   4,N   3,Mn  0,N   5)    152.9178         0.001842   
    140. D(N   4,N   3,Mn  0,N  22)     61.4191         0.001842   
    141. D(C  11,N   3,Mn  0,N  22)   -117.0477         0.001842   
    142. D(C  11,N   3,Mn  0,N  24)    154.4505         0.001842   
    143. D(C  11,N   3,Mn  0,N   1)     62.9509         0.001842   
    144. D(C  11,N   3,Mn  0,N   5)    -25.5490         0.001842   
    145. D(H  18,N   4,N   3,Mn  0)      7.0388         0.031097   
    146. D(H  18,N   4,N   3,C  11)   -174.2113         0.031097   
    147. D(C   9,N   4,N   3,C  11)      0.8229         0.031097   
    148. D(C   9,N   4,N   3,Mn  0)   -177.9270         0.031097   
    149. D(C  12,N   5,Mn  0,N  23)    122.5335         0.001910   
    150. D(C  12,N   5,Mn  0,N  22)     34.8971         0.001910   
    151. D(C  12,N   5,Mn  0,N   1)   -145.1048         0.001910   
    152. D(C  12,N   5,Mn  0,N   3)    -57.4670         0.001910   
    153. D(H  15,C   6,N   2,N   1)    168.2182         0.029435   
    154. D(C   7,C   6,N   2,H  14)   -171.9638         0.029435   
    155. D(C   7,C   6,N   2,N   1)      0.2069         0.029435   
    156. D(H  15,C   6,N   2,H  14)     -3.9525         0.029435   
    157. D(H  16,C   7,C   6,H  15)     26.6733         0.036029   
    158. D(H  16,C   7,C   6,N   2)   -170.9748         0.036029   
    159. D(C   8,C   7,C   6,H  15)   -162.8534         0.036029   
    160. D(C   8,C   7,C   6,N   2)     -0.5015         0.036029   
    161. D(H  17,C   8,C   7,H  16)      2.9965         0.027253   
    162. D(H  17,C   8,C   7,C   6)   -167.4545         0.027253   
    163. D(N   1,C   8,C   7,H  16)    171.1094         0.027253   
    164. D(H  17,C   8,N   1,N   2)    169.9182         0.034740   
    165. D(H  17,C   8,N   1,Mn  0)     -1.8131         0.034740   
    166. D(C   7,C   8,N   1,N   2)     -0.5332         0.034740   
    167. D(N   1,C   8,C   7,C   6)      0.6584         0.027253   
    168. D(C   7,C   8,N   1,Mn  0)   -172.2645         0.034740   
    169. D(H  19,C   9,N   4,H  18)      2.3602         0.034047   
    170. D(H  19,C   9,N   4,N   3)   -172.7109         0.034047   
    171. D(C  10,C   9,N   4,H  18)    174.1821         0.034047   
    172. D(C  10,C   9,N   4,N   3)     -0.8890         0.034047   
    173. D(H  20,C  10,C   9,H  19)    -15.7262         0.053881   
    174. D(H  20,C  10,C   9,N   4)    172.6593         0.053881   
    175. D(C  11,C  10,C   9,H  19)    172.2106         0.053881   
    176. D(C  11,C  10,C   9,N   4)      0.5961         0.053881   
    177. D(H  21,C  11,C  10,H  20)     -4.9703         0.030679   
    178. D(H  21,C  11,C  10,C   9)    168.6016         0.030679   
    179. D(N   3,C  11,C  10,C   9)     -0.1082         0.030679   
    180. D(H  21,C  11,N   3,N   4)   -171.1845         0.038908   
    181. D(N   3,C  11,C  10,H  20)   -173.6801         0.030679   
    182. D(H  21,C  11,N   3,Mn  0)      7.5370         0.038908   
    183. D(C  10,C  11,N   3,N   4)     -0.4283         0.038908   
    184. D(C  10,C  11,N   3,Mn  0)    178.2932         0.038908   
    185. D(N  25,N  22,Mn  0,N  23)    103.7189         0.001817   
    186. D(N  25,N  22,Mn  0,N   5)   -167.2207         0.001817   
    187. D(N  25,N  22,Mn  0,N   3)    -76.2847         0.001817   
    188. D(C  26,N  22,N   1,C   8)    179.9983         0.001500   
    189. D(N  25,N  22,N   1,C   8)     -9.6618         0.001500   
    190. D(N  25,N  22,N   1,N   2)   -179.9982         0.001500   
    191. D(C  26,N  22,Mn  0,N  24)   -157.5613         0.001817   
    192. D(C  26,N  22,Mn  0,N  23)    -66.6222         0.001817   
    193. D(C  26,N  22,Mn  0,N   5)     22.4383         0.001817   
    194. D(C  26,N  22,N   1,N   2)      9.6618         0.001500   
    195. D(C  26,N  22,Mn  0,N   3)    113.3743         0.001817   
    196. D(N  25,N  22,Mn  0,N  24)     12.7797         0.001817   
    197. D(C  28,N  23,N   3,C  11)    179.9925         0.001500   
    198. D(C  28,N  23,N   3,N   4)     -1.5415         0.001500   
    199. D(N  27,N  23,N   3,C  11)      1.5369         0.001500   
    200. D(N  27,N  23,N   3,N   4)   -179.9972         0.001500   
    201. D(C  28,N  23,Mn  0,N  24)     25.5412         0.001842   
    202. D(C  28,N  23,Mn  0,N  22)    -62.9605         0.001842   
    203. D(C  28,N  23,Mn  0,N   5)   -154.4593         0.001842   
    204. D(C  28,N  23,Mn  0,N   1)    117.0409         0.001842   
    205. D(N  27,N  23,Mn  0,N  24)   -152.9136         0.001842   
    206. D(N  27,N  23,Mn  0,N  22)    118.5847         0.001842   
    207. D(N  27,N  23,Mn  0,N   5)     27.0859         0.001842   
    208. D(N  27,N  23,Mn  0,N   1)    -61.4139         0.001842   
    209. D(C  29,N  24,N   5,C  12)   -179.9959         0.001500   
    210. D(C  29,N  24,Mn  0,N  23)     57.4708         0.001911   
    211. D(C  29,N  24,Mn  0,N  22)    145.1072         0.001911   
    212. D(C  29,N  24,Mn  0,N   3)   -122.5287         0.001911   
    213. D(C  29,N  24,Mn  0,N   1)    -34.8909         0.001911   
    214. D(H  31,N  25,N  22,C  26)   -172.6911         0.036239   
    215. D(H  31,N  25,N  22,Mn  0)     14.7478         0.036239   
    216. D(C  30,N  25,N  22,C  26)     -0.1935         0.036239   
    217. D(C  30,N  25,N  22,Mn  0)   -172.7545         0.036239   
    218. D(H  33,C  26,N  22,N  25)   -169.9168         0.034761   
    219. D(H  33,C  26,N  22,Mn  0)      1.8185         0.034761   
    220. D(C  32,C  26,N  22,N  25)      0.5340         0.034761   
    221. D(C  32,C  26,N  22,Mn  0)    172.2693         0.034761   
    222. D(H  35,N  27,N  23,C  28)    174.2202         0.031102   
    223. D(H  35,N  27,N  23,Mn  0)     -7.0398         0.031102   
    224. D(C  34,N  27,N  23,C  28)     -0.8169         0.031102   
    225. D(C  34,N  27,N  23,Mn  0)    177.9231         0.031102   
    226. D(H  37,C  28,N  23,N  27)    171.1897         0.038897   
    227. D(H  37,C  28,N  23,Mn  0)     -7.5219         0.038897   
    228. D(C  36,C  28,N  23,N  27)      0.4225         0.038897   
    229. D(C  36,C  28,N  23,Mn  0)   -178.2891         0.038897   
    230. D(H  39,C  30,N  25,H  31)      3.9571         0.029412   
    231. D(H  39,C  30,N  25,N  22)   -168.2178         0.029412   
    232. D(C  32,C  30,N  25,H  31)    171.9628         0.029412   
    233. D(C  32,C  30,N  25,N  22)     -0.2121         0.029412   
    234. D(H  40,C  32,C  30,H  39)    -26.6896         0.036011   
    235. D(H  40,C  32,C  30,N  25)    170.9691         0.036011   
    236. D(C  26,C  32,C  30,H  39)    162.8479         0.036011   
    237. D(C  26,C  32,C  30,N  25)      0.5067         0.036011   
    238. D(H  40,C  32,C  26,H  33)     -2.9863         0.027239   
    239. D(H  40,C  32,C  26,N  22)   -171.1010         0.027239   
    240. D(C  30,C  32,C  26,H  33)    167.4525         0.027239   
    241. D(C  30,C  32,C  26,N  22)     -0.6622         0.027239   
    242. D(H  41,C  34,N  27,H  35)     -2.3657         0.034079   
    243. D(H  41,C  34,N  27,N  23)    172.7078         0.034079   
    244. D(C  36,C  34,N  27,H  35)   -174.1882         0.034079   
    245. D(C  36,C  34,N  27,N  23)      0.8853         0.034079   
    246. D(C  28,C  36,C  34,H  41)   -172.2118         0.053852   
    247. D(C  28,C  36,C  34,N  27)     -0.5962         0.053852   
    248. D(H  42,C  36,C  28,H  37)      4.9621         0.030679   
    249. D(H  42,C  36,C  28,N  23)    173.6863         0.030679   
    250. D(C  34,C  36,C  28,H  37)   -168.6123         0.030679   
    251. D(C  34,C  36,C  28,N  23)      0.1120         0.030679   
    252. D(H  42,C  36,C  34,H  41)     15.7224         0.053852   
    253. D(H  42,C  36,C  34,N  27)   -172.6620         0.053852   
    -----------------------------------------------------------------

Number of atoms                         .... 43
Number of degrees of freedom            .... 253


         *************************************************************
         *                GEOMETRY OPTIMIZATION CYCLE   1            *
         *************************************************************
---------------------------------
CARTESIAN COORDINATES (ANGSTROEM)
---------------------------------
  Mn     0.982900    3.128300    7.027700
  N      0.662800    2.331200    9.103700
  N      1.302800    1.271300    9.598500
  N      2.188400    4.773700    7.944100
  N      1.918600    6.097600    7.883700
  N      2.772900    1.855700    6.875900
  C      1.036700    1.102400   10.930900
  C      0.189400    2.085900   11.314600
  C     -0.011300    2.830400   10.159300
  C      2.874600    6.820800    8.506400
  C      3.725400    5.947400    8.968800
  C      3.326000    4.676100    8.634300
  C      3.830200    1.773100    6.454300
  S      5.361900    1.678000    5.814700
  H      1.702700    0.763300    9.136000
  H      1.339000    0.275300   11.216300
  H     -0.111800    2.327400   12.298500
  H     -0.422700    3.728900    9.993400
  H      1.126400    6.469200    7.519700
  H      2.845800    7.820600    8.686300
  H      4.383100    6.006200    9.290700
  H      3.722400    3.879000    8.672200
  N      1.303000    3.925300    4.951700
  N     -0.222500    1.482800    6.111300
  N     -0.807000    4.400800    7.179500
  N      0.663000    4.985200    4.457000
  C      1.977100    3.426100    3.896200
  N      0.047200    0.158900    6.171700
  C     -1.360200    1.580400    5.421200
  C     -1.864400    4.483400    7.601200
  C      0.929100    5.154100    3.124500
  H      0.263100    5.493200    4.919400
  C      1.776500    4.170600    2.740800
  H      2.388500    2.527600    4.062000
  C     -0.908700   -0.564300    5.549100
  H      0.839500   -0.212700    6.535800
  C     -1.759600    0.309100    5.086700
  H     -1.756600    2.377500    5.383200
  S     -3.396100    4.578500    8.240700
  H      0.626800    5.981200    2.839200
  H      2.077600    3.929100    1.756900
  H     -0.879900   -1.564100    5.369200
  H     -2.417300    0.250300    4.764800

----------------------------
CARTESIAN COORDINATES (A.U.)
----------------------------
  NO LB      ZA    FRAG     MASS         X           Y           Z
   0 Mn   25.0000    0    54.940    1.857412    5.911630   13.280428
   1 N     7.0000    0    14.007    1.252510    4.405330   17.203500
   2 N     7.0000    0    14.007    2.461935    2.402409   18.138536
   3 N     7.0000    0    14.007    4.135477    9.020986   15.012173
   4 N     7.0000    0    14.007    3.625629   11.522794   14.898034
   5 N     7.0000    0    14.007    5.240022    3.506765   12.993568
   6 C     6.0000    0    12.011    1.959079    2.083234   20.656407
   7 C     6.0000    0    12.011    0.357914    3.941780   21.381495
   8 C     6.0000    0    12.011   -0.021354    5.348681   19.198295
   9 C     6.0000    0    12.011    5.432207   12.889444   16.074766
  10 C     6.0000    0    12.011    7.039986   11.238957   16.948576
  11 C     6.0000    0    12.011    6.285229    8.836548   16.316462
  12 C     6.0000    0    12.011    7.238029    3.350673   12.196859
  13 S    16.0000    0    32.060   10.132523    3.170960   10.988191
  14 H     1.0000    0     1.008    3.217637    1.442428   17.264538
  15 H     1.0000    0     1.008    2.530343    0.520242   21.195735
  16 H     1.0000    0     1.008   -0.211271    4.398149   23.240797
  17 H     1.0000    0     1.008   -0.798787    7.046600   18.884789
  18 H     1.0000    0     1.008    2.128588   12.225016   14.210174
  19 H     1.0000    0     1.008    5.377783   14.778792   16.414728
  20 H     1.0000    0     1.008    8.282859   11.350073   17.556879
  21 H     1.0000    0     1.008    7.034317    7.330248   16.388083
  22 N     7.0000    0    14.007    2.462313    7.417742    9.357357
  23 N     7.0000    0    14.007   -0.420464    2.802086   11.548683
  24 N     7.0000    0    14.007   -1.525009    8.316307   13.567289
  25 N     7.0000    0    14.007    1.252888    9.420663    8.422509
  26 C     6.0000    0    12.011    3.736178    6.474391    7.362751
  27 N     7.0000    0    14.007    0.089195    0.300277   11.662823
  28 C     6.0000    0    12.011   -2.570405    2.986523   10.244583
  29 C     6.0000    0    12.011   -3.523205    8.472398   14.364186
  30 C     6.0000    0    12.011    1.755745    9.739837    5.904449
  31 H     1.0000    0     1.008    0.497187   10.380644    9.296319
  32 C     6.0000    0    12.011    3.357098    7.881292    5.179361
  33 H     1.0000    0     1.008    4.513611    4.776472    7.676068
  34 C     6.0000    0    12.011   -1.717194   -1.066372   10.486279
  35 H     1.0000    0     1.008    1.586425   -0.401945   12.350872
  36 C     6.0000    0    12.011   -3.325162    0.584114    9.612470
  37 H     1.0000    0     1.008   -3.319493    4.492824   10.172774
  38 S    16.0000    0    32.060   -6.417699    8.652111   15.572666
  39 H     1.0000    0     1.008    1.184480   11.302830    5.365310
  40 H     1.0000    0     1.008    3.926095    7.424923    3.320060
  41 H     1.0000    0     1.008   -1.662770   -2.955721   10.146318
  42 H     1.0000    0     1.008   -4.568035    0.472998    9.004167

--------------------------------
INTERNAL COORDINATES (ANGSTROEM)
--------------------------------
 Mn     0   0   0     0.000000000000     0.00000000     0.00000000
 N      1   0   0     2.246688322843     0.00000000     0.00000000
 N      2   1   0     1.333347310343   123.81701420     0.00000000
 N      1   2   3     2.236148557230    87.66121274   256.28741825
 N      4   1   2     1.352461241589   126.47232497   241.41772641
 N      1   2   3     2.201511753319    88.53708615   347.22346651
 C      3   2   1     1.369169887194   111.46315876   172.75313038
 C      7   3   2     1.353667326192   107.93055084     0.20689163
 C      2   1   3     1.348296261954   131.55262817   170.33542363
 C      5   4   1     1.350818096562   111.24178949   182.07299380
 C     10   5   4     1.304032959706   105.46337920   359.11100740
 C      4   1   2     1.334179733020   128.15872479    62.95088513
 C      6   1   2     1.141250458927   145.14269025   214.89517562
 S     13   6   1     1.662599488752   178.73096037   337.84754421
 H      3   2   1     0.794915253345   122.24636824   345.24812016
 H      7   3   2     0.925706681406   110.29029433   168.21818839
 H      8   7   3     1.056930887050   127.46313488   189.02520556
 H      9   2   1     1.002035438495   114.05637645   358.18690040
 H      5   4   1     0.947714830527   124.59185753     7.03878867
 H     10   5   4     1.016264478372   126.03310087   187.28910851
 H     11  10   5     0.734606248272   133.30670550   172.65930052
 H     12   4   1     0.891031862505   117.82513704     7.53698414
 N      1   2   3     2.246652845902   179.99761563    39.72147423
 N      1   2   3     2.236168233832    92.33822222    76.28387175
 N      1   2   3     2.201372639968    91.46245355   167.22299022
 N     23   1  25     1.333310203966   123.81146905    12.77974720
 C     23   1  25     1.348217971991   131.55239354   202.43873303
 N     24   1   2     1.352441296323   126.47917174   298.58614859
 C     24   1   2     1.334213273806   128.15488605   117.04090543
 C     25   1   2     1.141380046260   145.14174751   325.10913962
 C     26  23   1     1.369267201827   111.45935979   187.24547377
 H     26  23   1     0.794857075203   122.25613909    14.74782612
 C     31  26  23     1.353729921365   107.93048709   359.78789026
 H     27  23   1     1.002018887048   114.06395733     1.81850156
 C     28  24   1     1.350701228992   111.24837303   177.92307984
 H     28  24   1     0.947836831949   124.58484550   352.96016080
 C     35  28  24     1.304098205658   105.46275167     0.88528663
 H     29  24   1     0.891036121602   117.82994684   352.47810242
 S     30  25   1     1.662561021437   178.73568088    21.98071050
 H     31  26  23     0.925675855794   110.28444786   191.78223149
 H     33  31  26     1.056902393790   127.45953275   170.96911143
 H     35  28  24     1.016264478372   126.03592718   172.70780249
 H     37  35  28     0.734606248272   133.30940911   187.33801346

---------------------------
INTERNAL COORDINATES (A.U.)
---------------------------
 Mn     0   0   0     0.000000000000     0.00000000     0.00000000
 N      1   0   0     4.245625638453     0.00000000     0.00000000
 N      2   1   0     2.519661257950   123.81701420     0.00000000
 N      1   2   3     4.225708367927    87.66121274   256.28741825
 N      4   1   2     2.555781353346   126.47232497   241.41772641
 N      1   2   3     4.160254294381    88.53708615   347.22346651
 C      3   2   1     2.587356117609   111.46315876   172.75313038
 C      7   3   2     2.558060522940   107.93055084     0.20689163
 C      2   1   3     2.547910682483   131.55262817   170.33542363
 C      5   4   1     2.552676259247   111.24178949   182.07299380
 C     10   5   4     2.464265163451   105.46337920   359.11100740
 C      4   1   2     2.521234308835   128.15872479    62.95088513
 C      6   1   2     2.156650817583   145.14269025   214.89517562
 S     13   6   1     3.141857704140   178.73096037   337.84754421
 H      3   2   1     1.502172128498   122.24636824   345.24812016
 H      7   3   2     1.749332108199   110.29029433   168.21818839
 H      8   7   3     1.997309919007   127.46313488   189.02520556
 H      9   2   1     1.893572555239   114.05637645   358.18690040
 H      5   4   1     1.790921482751   124.59185753     7.03878867
 H     10   5   4     1.920461543755   126.03310087   187.28910851
 H     11  10   5     1.388204625501   133.30670550   172.65930052
 H     12   4   1     1.683806196733   117.82513704     7.53698414
 N      1   2   3     4.245558596750   179.99761563    39.72147423
 N      1   2   3     4.225745551317    92.33822222    76.28387175
 N      1   2   3     4.159991408247    91.46245355   167.22299022
 N     23   1  25     2.519591137059   123.81146905    12.77974720
 C     23   1  25     2.547762735894   131.55239354   202.43873303
 N     24   1   2     2.555743662256   126.47917174   298.58614859
 C     24   1   2     2.521297691736   128.15488605   117.04090543
 C     25   1   2     2.156895702153   145.14174751   325.10913962
 C     26  23   1     2.587540015614   111.45935979   187.24547377
 H     26  23   1     1.502062187743   122.25613909    14.74782612
 C     31  26  23     2.558178810675   107.93048709   359.78789026
 H     27  23   1     1.893541277536   114.06395733     1.81850156
 C     28  24   1     2.552455411545   111.24837303   177.92307984
 H     28  24   1     1.791152032028   124.58484550   352.96016080
 C     35  28  24     2.464388460431   105.46275167     0.88528663
 H     29  24   1     1.683814245260   117.82994684   352.47810242
 S     30  25   1     3.141785011447   178.73568088    21.98071050
 H     31  26  23     1.749273856234   110.28444786   191.78223149
 H     33  31  26     1.997256074550   127.45953275   170.96911143
 H     35  28  24     1.920461543755   126.03592718   172.70780249
 H     37  35  28     1.388204625501   133.30940911   187.33801346

---------------------
BASIS SET INFORMATION
---------------------
There are 5 groups of distinct atoms

 Group   1 Type Mn  : 17s11p7d1f contracted to 6s4p4d1f pattern {842111/6311/4111/1}
 Group   2 Type N   : 11s6p2d1f contracted to 5s3p2d1f pattern {62111/411/11/1}
 Group   3 Type C   : 11s6p2d1f contracted to 5s3p2d1f pattern {62111/411/11/1}
 Group   4 Type S   : 14s9p3d1f contracted to 5s5p2d1f pattern {73211/51111/21/1}
 Group   5 Type H   : 5s1p contracted to 3s1p pattern {311/1}

Atom   0Mn   basis set group =>   1
Atom   1N    basis set group =>   2
Atom   2N    basis set group =>   2
Atom   3N    basis set group =>   2
Atom   4N    basis set group =>   2
Atom   5N    basis set group =>   2
Atom   6C    basis set group =>   3
Atom   7C    basis set group =>   3
Atom   8C    basis set group =>   3
Atom   9C    basis set group =>   3
Atom  10C    basis set group =>   3
Atom  11C    basis set group =>   3
Atom  12C    basis set group =>   3
Atom  13S    basis set group =>   4
Atom  14H    basis set group =>   5
Atom  15H    basis set group =>   5
Atom  16H    basis set group =>   5
Atom  17H    basis set group =>   5
Atom  18H    basis set group =>   5
Atom  19H    basis set group =>   5
Atom  20H    basis set group =>   5
Atom  21H    basis set group =>   5
Atom  22N    basis set group =>   2
Atom  23N    basis set group =>   2
Atom  24N    basis set group =>   2
Atom  25N    basis set group =>   2
Atom  26C    basis set group =>   3
Atom  27N    basis set group =>   2
Atom  28C    basis set group =>   3
Atom  29C    basis set group =>   3
Atom  30C    basis set group =>   3
Atom  31H    basis set group =>   5
Atom  32C    basis set group =>   3
Atom  33H    basis set group =>   5
Atom  34C    basis set group =>   3
Atom  35H    basis set group =>   5
Atom  36C    basis set group =>   3
Atom  37H    basis set group =>   5
Atom  38S    basis set group =>   4
Atom  39H    basis set group =>   5
Atom  40H    basis set group =>   5
Atom  41H    basis set group =>   5
Atom  42H    basis set group =>   5
---------------------------------
AUXILIARY/J BASIS SET INFORMATION
---------------------------------
There are 5 groups of distinct atoms

 Group   1 Type Mn  : 19s5p5d3f3g contracted to 8s5p5d2f3g pattern {121111111/11111/11111/21/111}
 Group   2 Type N   : 12s5p4d2f1g contracted to 6s4p3d1f1g pattern {711111/2111/211/2/1}
 Group   3 Type C   : 12s5p4d2f1g contracted to 6s4p3d1f1g pattern {711111/2111/211/2/1}
 Group   4 Type S   : 14s5p5d2f1g contracted to 8s4p3d1f1g pattern {71111111/2111/311/2/1}
 Group   5 Type H   : 5s2p1d contracted to 3s1p1d pattern {311/2/1}

Atom   0Mn   basis set group =>   1
Atom   1N    basis set group =>   2
Atom   2N    basis set group =>   2
Atom   3N    basis set group =>   2
Atom   4N    basis set group =>   2
Atom   5N    basis set group =>   2
Atom   6C    basis set group =>   3
Atom   7C    basis set group =>   3
Atom   8C    basis set group =>   3
Atom   9C    basis set group =>   3
Atom  10C    basis set group =>   3
Atom  11C    basis set group =>   3
Atom  12C    basis set group =>   3
Atom  13S    basis set group =>   4
Atom  14H    basis set group =>   5
Atom  15H    basis set group =>   5
Atom  16H    basis set group =>   5
Atom  17H    basis set group =>   5
Atom  18H    basis set group =>   5
Atom  19H    basis set group =>   5
Atom  20H    basis set group =>   5
Atom  21H    basis set group =>   5
Atom  22N    basis set group =>   2
Atom  23N    basis set group =>   2
Atom  24N    basis set group =>   2
Atom  25N    basis set group =>   2
Atom  26C    basis set group =>   3
Atom  27N    basis set group =>   2
Atom  28C    basis set group =>   3
Atom  29C    basis set group =>   3
Atom  30C    basis set group =>   3
Atom  31H    basis set group =>   5
Atom  32C    basis set group =>   3
Atom  33H    basis set group =>   5
Atom  34C    basis set group =>   3
Atom  35H    basis set group =>   5
Atom  36C    basis set group =>   3
Atom  37H    basis set group =>   5
Atom  38S    basis set group =>   4
Atom  39H    basis set group =>   5
Atom  40H    basis set group =>   5
Atom  41H    basis set group =>   5
Atom  42H    basis set group =>   5


           ************************************************************
           *        Program running with 16 parallel MPI-processes    *
           *              working on a common directory               *
           ************************************************************
------------------------------------------------------------------------------
                             ORCA STARTUP CALCULATIONS
                           -- RI-GTO INTEGRALS CHOSEN --
------------------------------------------------------------------------------
------------------------------------------------------------------------------
                   ___                                                        
                  /   \      - P O W E R E D   B Y -                         
                 /     \                                                     
                 |  |  |   _    _      __       _____    __    __             
                 |  |  |  | |  | |    /  \     |  _  \  |  |  /  |          
                  \  \/   | |  | |   /    \    | | | |  |  | /  /          
                 / \  \   | |__| |  /  /\  \   | |_| |  |  |/  /          
                |  |  |   |  __  | /  /__\  \  |    /   |      \           
                |  |  |   | |  | | |   __   |  |    \   |  |\   \          
                \     /   | |  | | |  |  |  |  | |\  \  |  | \   \       
                 \___/    |_|  |_| |__|  |__|  |_| \__\ |__|  \__/        
                                                                              
                      - O R C A' S   B I G   F R I E N D -                    
                                      &                                       
                       - I N T E G R A L  F E E D E R -                       
                                                                              
 v1 FN, 2020, v2 2021, v3 2022-2024                                           
------------------------------------------------------------------------------


----------------------
SHARK INTEGRAL PACKAGE
----------------------

Number of atoms                             ...     43
Number of basis functions                   ...    959
Number of shells                            ...    369
Maximum angular momentum                    ...      3
Integral batch strategy                     ... SHARK/LIBINT Hybrid
RI-J (if used) integral strategy            ... SPLIT-RIJ (Revised 2003 algorithm where possible)
Printlevel                                  ...      1
Contraction scheme used                     ... SEGMENTED contraction
Prescreening option                         ... SCHWARTZ
   Thresh                                   ... 2.500e-11
   Tcut                                     ... 2.500e-12
   Tpresel                                  ... 2.500e-12 
Coulomb Range Separation                    ... NOT USED
Exchange Range Separation                   ... NOT USED
Multipole approximations                    ... NOT USED
Finite Nucleus Model                        ... NOT USED
CABS basis                                  ... NOT available
Auxiliary Coulomb fitting basis             ... AVAILABLE
   # of basis functions in Aux-J            ...   1543
   # of shells in Aux-J                     ...    497
   Maximum angular momentum in Aux-J        ...      4
Auxiliary J/K fitting basis                 ... NOT available
Auxiliary Correlation fitting basis         ... NOT available
Auxiliary 'external' fitting basis          ... NOT available

Checking pre-screening integrals            ... done (  0.0 sec) Dimension = 369
Check shell pair data                       ... done (  0.0 sec)
Shell pair information
Shell pair cut-off parameter TPreSel        ...   2.5e-12
Total number of shell pairs                 ...     68265
Shell pairs after pre-screening             ...     45831
Total number of primitive shell pairs       ...    222818
Primitive shell pairs kept                  ...     92326
          la=0 lb=0:  10989 shell pairs
          la=1 lb=0:  13132 shell pairs
          la=1 lb=1:   3971 shell pairs
          la=2 lb=0:   6704 shell pairs
          la=2 lb=1:   4120 shell pairs
          la=2 lb=2:   1136 shell pairs
          la=3 lb=0:   2836 shell pairs
          la=3 lb=1:   1820 shell pairs
          la=3 lb=2:    932 shell pairs
          la=3 lb=3:    191 shell pairs

Calculating one electron integrals          ... done (  0.0 sec)
done (  0.2 sec)
Calculating Nuclear repulsion               ... done (  0.0 sec) ENN=   3323.430852556224 Eh

Diagonalization of the overlap matrix:
Smallest eigenvalue                        ... 6.208e-05
Time for diagonalization                   ...    0.136 sec
Threshold for overlap eigenvalues          ... 1.000e-07
Number of eigenvalues below threshold      ... 0
Time for construction of square roots      ...    0.088 sec
Total time needed                          ...    0.241 sec

-------------------
DFT GRID GENERATION
-------------------

General Integration Accuracy     IntAcc      ... 4.959
Radial Grid Type                 RadialGrid  ... OptM3 with GC (2021)
Angular Grid (max. ang.)         AngularGrid ... 6 (Lebedev-590)
Angular grid pruning method      GridPruning ... 4 (adaptive)
Weight generation scheme         WeightScheme... mBecke (2022)
Basis function cutoff            BFCut       ... 1.0000e-11
Integration weight cutoff        WCut        ... 1.0000e-14
Partially contracted basis set               ... off
Rotationally invariant grid construction     ... off
Angular grids for H and He will be reduced by one unit
Core-polarized basis detected: some atoms will have their core
                               angular grid increased.

Total number of grid points                  ...   535933
Total number of batches                      ...     8397
Average number of points per batch           ...       63
Average number of grid points per atom       ...    12464

--------------------
COSX GRID GENERATION
--------------------

GRIDX 1
-------
General Integration Accuracy     IntAcc      ... 4.020
Radial Grid Type                 RadialGrid  ... OptM3 with GC (2021)
Angular Grid (max. ang.)         AngularGrid ... 2 (Lebedev-110)
Angular grid pruning method      GridPruning ... 4 (adaptive)
Weight generation scheme         WeightScheme... mBecke (2022)
Basis function cutoff            BFCut       ... 1.0000e-11
Integration weight cutoff        WCut        ... 1.0000e-14
Partially contracted basis set               ... on
Rotationally invariant grid construction     ... off
Angular grids for H and He will be reduced by one unit
Core-polarized basis detected: some atoms will have their core
                               angular grid increased.

Total number of grid points                  ...    62748
Total number of batches                      ...      517
Average number of points per batch           ...      121
Average number of grid points per atom       ...     1459
UseSFitting                                  ... on

GRIDX 2
-------
General Integration Accuracy     IntAcc      ... 4.338
Radial Grid Type                 RadialGrid  ... OptM3 with GC (2021)
Angular Grid (max. ang.)         AngularGrid ... 3 (Lebedev-194)
Angular grid pruning method      GridPruning ... 4 (adaptive)
Weight generation scheme         WeightScheme... mBecke (2022)
Basis function cutoff            BFCut       ... 1.0000e-11
Integration weight cutoff        WCut        ... 1.0000e-14
Partially contracted basis set               ... on
Rotationally invariant grid construction     ... off
Angular grids for H and He will be reduced by one unit
Core-polarized basis detected: some atoms will have their core
                               angular grid increased.

Total number of grid points                  ...   132568
Total number of batches                      ...     1055
Average number of points per batch           ...      125
Average number of grid points per atom       ...     3083
UseSFitting                                  ... on

GRIDX 3
-------
General Integration Accuracy     IntAcc      ... 4.871
Radial Grid Type                 RadialGrid  ... OptM3 with GC (2021)
Angular Grid (max. ang.)         AngularGrid ... 4 (Lebedev-302)
Angular grid pruning method      GridPruning ... 4 (adaptive)
Weight generation scheme         WeightScheme... mBecke (2022)
Basis function cutoff            BFCut       ... 1.0000e-11
Integration weight cutoff        WCut        ... 1.0000e-14
Partially contracted basis set               ... on
Rotationally invariant grid construction     ... off
Angular grids for H and He will be reduced by one unit
Core-polarized basis detected: some atoms will have their core
                               angular grid increased.

Total number of grid points                  ...   244700
Total number of batches                      ...     1935
Average number of points per batch           ...      126
Average number of grid points per atom       ...     5691
UseSFitting                                  ... on
Initializing property integral containers    ... done (  0.0 sec)

SHARK setup successfully completed in   8.2 seconds

Maximum memory used throughout the entire STARTUP-calculation: 163.8 MB


           ************************************************************
           *        Program running with 16 parallel MPI-processes    *
           *              working on a common directory               *
           ************************************************************
-------------------------------------------------------------------------------
                                 ORCA GUESS
                   Start orbitals & Density for SCF / CASSCF
-------------------------------------------------------------------------------

------------
SCF SETTINGS
------------
Hamiltonian:
 Density Functional     Method          .... DFT(GTOs)
 Exchange Functional    Exchange        .... PBE
   PBE kappa parameter   XKappa         ....  0.804000
   PBE mue parameter    XMuePBE         ....  0.219520
 Correlation Functional Correlation     .... PBE
   PBE beta parameter  CBetaPBE         ....  0.066725
 LDA part of GGA corr.  LDAOpt          .... PW91-LDA
 Gradients option       PostSCFGGA      .... off
 Hybrid DFT is turned on
   Fraction HF Exchange ScalHFX         ....  0.250000
   Scaling of DF-GGA-X  ScalDFX         ....  0.750000
   Scaling of DF-GGA-C  ScalDFC         ....  1.000000
   Scaling of DF-LDA-C  ScalLDAC        ....  1.000000
   Perturbative correction              ....  0.000000
   NL short-range parameter             ....  6.900000
 RI-approximation to the Coulomb term is turned on
   Number of AuxJ basis functions       .... 1543
   RIJ-COSX (HFX calculated with COS-X)).... on


General Settings:
 Integral files         IntName         .... BIKZUQ10-S6
 Hartree-Fock type      HFTyp           .... UHF
 Total Charge           Charge          ....    0
 Multiplicity           Mult            ....    2
 Number of Electrons    NEL             ....  227
 Basis Dimension        Dim             ....  959
 Nuclear Repulsion      ENuc            ....   3323.4308525562 Eh

Convergence Acceleration:
 AO-DIIS                CNVDIIS         .... on
   Start iteration      DIISMaxIt       ....    12
   Startup error        DIISStart       ....  0.200000
   # of expansion vecs  DIISMaxEq       ....     5
   Bias factor          DIISBfac        ....   1.050
   Max. coefficient     DIISMaxC        ....  10.000
 MO-DIIS                CNVKDIIS        .... off
 Trust-Rad. Augm. Hess. CNVTRAH         .... auto
   Auto Start mean grad. ratio tolernc. ....  1.125000
   Auto Start start iteration           ....    50
   Auto Start num. interpolation iter.  ....    10
   Max. Number of Micro iterations      ....    24
   Max. Number of Macro iterations      .... Maxiter - #DIIS iter
   Number of Davidson start vectors     ....     2
   Converg. threshold    (grad. norm)   ....   1.000e-05
   Grad. Scal. Fac. for Micro threshold ....   0.100
   Minimum threshold for Micro iter.    ....   1.000e-02
   NR start threshold (gradient norm)   ....   1.000e-04
   Initial trust radius                 ....   0.400
   Minimum AH scaling param. (alpha)    ....   1.000
   Maximum AH scaling param. (alpha)    .... 1000.000
   Quad. conv. algorithm                .... NR
   White noise on init. David. guess    .... on
   Maximum white noise                  ....   0.010
   Pseudo random numbers                .... off
   Inactive MOs                         .... canonical
   Orbital update algorithm             .... Taylor
   Preconditioner                       .... Diag
   Full preconditioner red. dimension   ....   250
 SOSCF                  CNVSOSCF        .... on
   Start iteration      SOSCFMaxIt      ....   150
   Startup grad/error   SOSCFStart      ....  0.003300
   Hessian update       SOSCFHessUp     .... L-BFGS
 Level Shifting         CNVShift        .... on
   Level shift para.    LevelShift      ....    0.2500
   Turn off err/grad.   ShiftErr        ....    0.0010
 Zerner damping         CNVZerner       .... off
 Static damping         CNVDamp         .... on
   Fraction old density DampFac         ....    0.7000
   Max. Damping (<1)    DampMax         ....    0.9800
   Min. Damping (>=0)   DampMin         ....    0.0000
   Turn off err/grad.   DampErr         ....    0.1000

SCF Procedure:
 Maximum # iterations   MaxIter         ....   125
 SCF integral mode      SCFMode         .... Direct
   Integral package                     .... SHARK and LIBINT hybrid scheme
 Reset frequency        DirectResetFreq ....    20
 Integral Threshold     Thresh          ....  2.500e-11 Eh
 Primitive CutOff       TCut            ....  2.500e-12 Eh

Convergence Tolerance:
 Convergence Check Mode ConvCheckMode   .... Total+1el-Energy
 Convergence forced     ConvForced      .... 0
 Energy Change          TolE            ....  1.000e-08 Eh
 1-El. energy change                    ....  1.000e-05 Eh
 Orbital Gradient       TolG            ....  1.000e-05
 Orbital Rotation angle TolX            ....  1.000e-05
 DIIS Error             TolErr          ....  5.000e-07

------------------------------
INITIAL GUESS: MODEL POTENTIAL
------------------------------
Loading Hartree-Fock densities                     ... done
Calculating cut-offs                               ... done
Initializing the effective Hamiltonian             ... done
Setting up the integral package (SHARK)            ... done
done (   0.3 sec)
Making the grid                                    ... done (   0.3 sec)
Mapping shells                                     ... done
Starting the XC term evaluation                    ... done (   0.2 sec)
  promolecular density results
     # of electrons  =    226.988366668
     EX              =   -242.701334006
     EC              =     -8.084832161
     EX+EC           =   -250.786166167
Transforming the Hamiltonian                       ... done (   0.2 sec)
done (   0.2 sec)
Back transforming the eigenvectors                 ... done (   0.1 sec)
done
                      ------------------
                      INITIAL GUESS DONE (   1.4 sec)
                      ------------------
             **** ENERGY FILE WAS UPDATED (BIKZUQ10-S6.en.tmp) ****
Finished Guess after   1.9 sec
Maximum memory used throughout the entire GUESS-calculation: 86.3 MB


           ************************************************************
           *        Program running with 16 parallel MPI-processes    *
           *              working on a common directory               *
           ************************************************************

-------------------------------------------------------------------------------------------
                                      ORCA LEAN-SCF
                              memory conserving SCF solver
-------------------------------------------------------------------------------------------

----------------------------------------D-I-I-S--------------------------------------------
Iteration    Energy (Eh)           Delta-E    RMSDP     MaxDP     DIISErr   Damp  Time(sec)
-------------------------------------------------------------------------------------------
               ***  Starting incremental Fock matrix formation  ***
    1    -3035.2435947515682528     0.00e+00  3.99e-04  2.60e-02  1.40e-01  0.700  21.3
    2    -3035.6148473323460166    -3.71e-01  2.93e-04  1.83e-02  6.13e-02  0.700  12.1
                               ***Turning on AO-DIIS***
    3    -3035.7595306199523293    -1.45e-01  1.58e-04  1.72e-02  2.66e-02  0.700  10.8
    4    -3035.8551988475596772    -9.57e-02  3.11e-04  2.99e-02  1.41e-02  0.000  10.5
    5    -3036.0661552820488396    -2.11e-01  7.40e-05  8.19e-03  4.70e-03  0.000  10.9
    6    -3036.0682173613827217    -2.06e-03  3.63e-05  4.90e-03  1.03e-02  0.000   9.4
    7    -3036.0692411703917060    -1.02e-03  1.91e-05  3.31e-03  3.34e-03  0.000   9.1
                              *** Initializing SOSCF ***
---------------------------------------S-O-S-C-F--------------------------------------
Iteration    Energy (Eh)           Delta-E    RMSDP     MaxDP     MaxGrad    Time(sec)
--------------------------------------------------------------------------------------
    8    -3036.0696408184362554    -4.00e-04  1.44e-05  2.62e-03  2.74e-03     9.5
               *** Restarting incremental Fock matrix formation ***
    9    -3036.0699169908525619    -2.76e-04  2.52e-05  5.20e-03  2.97e-03    21.7
               *** Scaled step length from 0.309037 to 0.200000 ***
   10    -3036.0703312256732715    -4.14e-04  1.47e-04  2.91e-02  2.08e-03    13.7
               *** Scaled step length from 0.393950 to 0.200000 ***
   11    -3036.0719494561403735    -1.62e-03  1.46e-04  2.59e-02  6.85e-03    15.9
   12    -3036.0729929639023794    -1.04e-03  5.78e-05  9.05e-03  6.12e-03    15.7
   13    -3036.0740668031899077    -1.07e-03  1.29e-04  2.05e-02  4.74e-03    14.7
   14    -3036.0750068011916483    -9.40e-04  4.40e-05  5.76e-03  7.52e-03    16.3
   15    -3036.0758510685013789    -8.44e-04  5.74e-05  8.48e-03  4.04e-03    15.2
   16    -3036.0764642908065980    -6.13e-04  5.37e-05  1.04e-02  2.81e-03    15.5
   17    -3036.0771571788104666    -6.93e-04  1.12e-04  2.50e-02  2.24e-03    14.8
   18    -3036.0773284111214707    -1.71e-04  5.09e-05  1.14e-02  2.84e-03    15.1
   19    -3036.0776392391203444    -3.11e-04  9.69e-06  1.60e-03  8.23e-04    14.5
   20    -3036.0776747541563054    -3.55e-05  1.98e-05  3.38e-03  5.71e-04    12.0
   21    -3036.0777109880086755    -3.62e-05  8.01e-06  1.44e-03  3.73e-04    12.9
   22    -3036.0777206537991333    -9.67e-06  5.30e-06  1.46e-03  2.78e-04    12.0
   23    -3036.0777278951659355    -7.24e-06  1.02e-05  2.95e-03  3.19e-04    11.2
   24    -3036.0777404107016082    -1.25e-05  2.35e-05  6.32e-03  3.90e-04    11.9
   25    -3036.0777584556240072    -1.80e-05  2.26e-05  5.49e-03  5.10e-04    12.8
   26    -3036.0777724449130801    -1.40e-05  1.23e-05  2.17e-03  5.19e-04    12.9
   27    -3036.0777873598067345    -1.49e-05  2.40e-05  4.33e-03  3.52e-04    12.2
   28    -3036.0778047239350599    -1.74e-05  1.84e-05  3.83e-03  2.92e-04    12.9
               *** Restarting incremental Fock matrix formation ***
   29    -3036.0778174134252367    -1.27e-05  1.46e-05  3.58e-03  3.50e-04    21.1
   30    -3036.0778371907786095    -1.98e-05  9.59e-05  2.28e-02  4.58e-04    12.7
               *** Scaled step length from 0.339984 to 0.200000 ***
   31    -3036.0779413212599138    -1.04e-04  1.45e-04  3.46e-02  1.24e-03    15.1
   32    -3036.0780320475828375    -9.07e-05  5.97e-05  1.59e-02  2.26e-03    15.5
               *** Scaled step length from 0.324653 to 0.200000 ***
   33    -3036.0783176920626829    -2.86e-04  1.47e-04  3.63e-02  2.41e-03    14.1
   34    -3036.0789789527520952    -6.61e-04  1.47e-04  2.90e-02  2.18e-03    15.4
               *** Scaled step length from 0.236607 to 0.200000 ***
   35    -3036.0788109870040898     1.68e-04  1.43e-04  3.20e-02  3.10e-03    16.2
               *** Scaled step length from 0.216924 to 0.200000 ***
   36    -3036.0794935927410734    -6.83e-04  1.47e-04  3.49e-02  1.37e-03    15.5
   37    -3036.0795082145536981    -1.46e-05  6.21e-05  1.52e-02  7.63e-04    15.4
   38    -3036.0796598810406977    -1.52e-04  2.58e-05  5.86e-03  4.03e-04    14.6
   39    -3036.0796721136744054    -1.22e-05  6.04e-06  1.17e-03  4.66e-04    13.2
   40    -3036.0796863370774190    -1.42e-05  1.32e-05  2.69e-03  2.81e-04    11.7
   41    -3036.0796950515173194    -8.71e-06  1.15e-05  2.86e-03  1.51e-04    12.1
   42    -3036.0796986860409561    -3.63e-06  4.34e-06  1.02e-03  1.89e-04    12.0
   43    -3036.0797005055833324    -1.82e-06  1.60e-06  2.75e-04  5.17e-05    11.0
   44    -3036.0797008274698783    -3.22e-07  9.77e-07  1.92e-04  4.11e-05     9.8
   45    -3036.0797010588416924    -2.31e-07  1.23e-06  2.80e-04  3.82e-05     8.6
   46    -3036.0797012693869874    -2.11e-07  1.39e-06  3.12e-04  3.28e-05     9.1
   47    -3036.0797014384947943    -1.69e-07  1.72e-06  4.34e-04  3.01e-05     8.9
   48    -3036.0797016137253195    -1.75e-07  1.89e-06  5.22e-04  3.46e-05     9.5
               *** Restarting incremental Fock matrix formation ***
   49    -3036.0797017338904880    -1.20e-07  2.22e-06  6.04e-04  3.02e-05    21.2
   50    -3036.0797019522601659    -2.18e-07  2.48e-06  7.03e-04  2.29e-05    10.1
   51    -3036.0797021686089465    -2.16e-07  1.12e-06  2.25e-04  1.97e-05     9.9

       ******************************************************************************
       ***                                                                        ***
       ***                               Auto-TRAH                                ***
       ***                               ---------                                ***
       *** the maximum gradient error decreased on average only by a factor   1.1 ***
       *** during the last  10 iterations                                         ***
       ***                                                                        ***
       ***               Leaving SCF to start the TRAH-SCF procedure              ***
       ***                                                                        ***
       ******************************************************************************

 --------------------------------------------------------------------------------------------
   Iter.        energy            ||Error||_2        Shift      TRadius  Mac/Mic        Rej.
 --------------------------------------------------------------------------------------------
    0      -3036.079702201542     1.575284e-04                     0.400 (TRAH MAcro)   No
    0     dE    -1.169027e-08     3.751463e-05    -1.1690e-08      0.000 (TRAH MIcro)
    0     dE    -1.413988e-08     4.321992e-05    -1.4140e-08      0.000 (TRAH MIcro)
    0     dE    -1.677772e-08     2.992016e-05    -1.6778e-08      0.000 (TRAH MIcro)
    0     dE    -1.766727e-08     2.447948e-05    -1.7667e-08      0.000 (TRAH MIcro)
    0     dE    -1.837995e-08     2.394136e-05    -1.8380e-08      0.000 (TRAH MIcro)
    0     dE    -1.878710e-08     1.583610e-05    -1.8787e-08      0.000 (TRAH MIcro)
    0     dE    -1.893718e-08     1.013112e-05    -1.8937e-08      0.000 (TRAH MIcro)
    1      -3036.079702220372     1.034537e-05                           (NR   MAcro)
    1     dE    -6.288931e-11     5.804004e-06                           (NR   MIcro)
    1     dE    -1.623431e-10     9.705038e-06                           (NR   MIcro)
    1     dE    -2.880158e-10     1.084420e-05                           (NR   MIcro)
    1     dE    -4.106829e-10     9.994985e-06                           (NR   MIcro)
    1     dE    -5.386439e-10     8.650441e-06                           (NR   MIcro)
    1     dE    -6.125366e-10     7.280214e-06                           (NR   MIcro)
    1     dE    -6.900350e-10     7.484041e-06                           (NR   MIcro)
    1     dE    -7.467844e-10     5.691342e-06                           (NR   MIcro)
    1     dE    -7.790226e-10     4.489810e-06                           (NR   MIcro)
    1     dE    -7.960611e-10     2.684179e-06                           (NR   MIcro)
    1     dE    -8.014132e-10     1.514453e-06                           (NR   MIcro)
    1     dE    -8.034256e-10     9.353480e-07                           (NR   MIcro)
    2      -3036.079702221158     1.307878e-06                           (NR   MAcro)

               *****************************************************
               *                     SUCCESS                       *
               *           SCF CONVERGED AFTER  73 CYCLES          *
               *****************************************************

 done (   28.411 sec)
Old exchange energy                            :    -61.586197664 Eh
New exchange energy                            :    -61.586195520 Eh
Exchange energy change after final integration :      0.000002144 Eh
Total energy after final integration           :  -3036.079700077 Eh
             **** ENERGY FILE WAS UPDATED (BIKZUQ10-S6.en.tmp) ****

----------------
TOTAL SCF ENERGY
----------------

Total Energy       :      -3036.07970007704944 Eh          -82615.92875 eV

Components:
Nuclear Repulsion  :       3323.43085255622418 Eh           90435.15113 eV
Electronic Energy  :      -6359.51055477738100 Eh         -173051.07994 eV
One Electron Energy:     -10785.53319428299801 Eh         -293489.27892 eV
Two Electron Energy:       4426.02263950561701 Eh          120438.19898 eV

Virial components:
Potential Energy   :      -6070.04314654447262 Eh         -165174.27132 eV
Kinetic Energy     :       3033.96344646742364 Eh           82558.34256 eV
Virial Ratio       :          2.00069752112936

DFT components:
N(Alpha)           :      114.000030902392 electrons
N(Beta)            :      113.000031733242 electrons
N(Total)           :      227.000062635634 electrons
E(X)               :     -184.316829893069 Eh       
E(C)               :       -8.093151420617 Eh       
E(XC)              :     -192.409981313687 Eh       

---------------
SCF CONVERGENCE
---------------

  Last Energy change         ...   -7.8580e-10  Tolerance :   1.0000e-08
  Last MAX-Density change    ...    4.6886e-05  Tolerance :   1.0000e-07
  Last RMS-Density change    ...    4.8413e-07  Tolerance :   5.0000e-09
  Last DIIS Error            ...    2.7397e-03  Tolerance :   5.0000e-07
  Last Orbital Gradient      ...    1.3079e-06  Tolerance :   1.0000e-05
  Last Orbital Rotation      ...    3.1176e-04  Tolerance :   1.0000e-05


----------------------
UHF SPIN CONTAMINATION
----------------------

Warning: in a DFT calculation there is little theoretical justification to 
         calculate <S**2> as in Hartree-Fock theory. We will do it anyways
         but you should keep in mind that the values have only limited relevance

Expectation value of <S**2>     :     1.873870
Ideal value S*(S+1) for S=0.5   :     0.750000
Deviation                       :     1.123870

----------------
ORBITAL ENERGIES
----------------
                 SPIN UP ORBITALS
  NO   OCC          E(Eh)            E(eV) 
   0   1.0000    -235.741575     -6414.8544 
   1   1.0000     -88.958386     -2420.6808 
   2   1.0000     -88.958361     -2420.6801 
   3   1.0000     -27.401773      -745.6401 
   4   1.0000     -23.446860      -638.0215 
   5   1.0000     -23.442539      -637.9039 
   6   1.0000     -23.441028      -637.8628 
   7   1.0000     -14.478121      -393.9697 
   8   1.0000     -14.478105      -393.9693 
   9   1.0000     -14.461454      -393.5162 
  10   1.0000     -14.461445      -393.5159 
  11   1.0000     -14.445298      -393.0765 
  12   1.0000     -14.445287      -393.0762 
  13   1.0000     -14.444390      -393.0518 
  14   1.0000     -14.444383      -393.0516 
  15   1.0000     -14.343636      -390.3102 
  16   1.0000     -14.343609      -390.3094 
  17   1.0000     -10.270225      -279.4670 
  18   1.0000     -10.270224      -279.4670 
  19   1.0000     -10.268810      -279.4285 
  20   1.0000     -10.268805      -279.4284 
  21   1.0000     -10.257741      -279.1273 
  22   1.0000     -10.257738      -279.1272 
  23   1.0000     -10.254918      -279.0505 
  24   1.0000     -10.254877      -279.0494 
  25   1.0000     -10.242028      -278.6997 
  26   1.0000     -10.242024      -278.6996 
  27   1.0000     -10.239792      -278.6389 
  28   1.0000     -10.239780      -278.6386 
  29   1.0000     -10.192632      -277.3556 
  30   1.0000     -10.192632      -277.3556 
  31   1.0000      -7.936605      -215.9660 
  32   1.0000      -7.936579      -215.9653 
  33   1.0000      -5.874079      -159.8418 
  34   1.0000      -5.874053      -159.8411 
  35   1.0000      -5.867131      -159.6527 
  36   1.0000      -5.867104      -159.6520 
  37   1.0000      -5.866938      -159.6475 
  38   1.0000      -5.866912      -159.6468 
  39   1.0000      -3.205794       -87.2341 
  40   1.0000      -2.057787       -55.9952 
  41   1.0000      -2.051115       -55.8137 
  42   1.0000      -2.047550       -55.7167 
  43   1.0000      -1.120150       -30.4808 
  44   1.0000      -1.119972       -30.4760 
  45   1.0000      -1.109958       -30.2035 
  46   1.0000      -1.109865       -30.2010 
  47   1.0000      -0.921939       -25.0872 
  48   1.0000      -0.921555       -25.0768 
  49   1.0000      -0.899507       -24.4768 
  50   1.0000      -0.899064       -24.4648 
  51   1.0000      -0.885989       -24.1090 
  52   1.0000      -0.885745       -24.1023 
  53   1.0000      -0.853324       -23.2201 
  54   1.0000      -0.852863       -23.2076 
  55   1.0000      -0.846735       -23.0408 
  56   1.0000      -0.846549       -23.0358 
  57   1.0000      -0.711444       -19.3594 
  58   1.0000      -0.711303       -19.3555 
  59   1.0000      -0.699690       -19.0395 
  60   1.0000      -0.699668       -19.0389 
  61   1.0000      -0.695355       -18.9216 
  62   1.0000      -0.695320       -18.9206 
  63   1.0000      -0.674910       -18.3652 
  64   1.0000      -0.674748       -18.3608 
  65   1.0000      -0.661603       -18.0031 
  66   1.0000      -0.661403       -17.9977 
  67   1.0000      -0.615103       -16.7378 
  68   1.0000      -0.612118       -16.6566 
  69   1.0000      -0.603846       -16.4315 
  70   1.0000      -0.603005       -16.4086 
  71   1.0000      -0.516524       -14.0553 
  72   1.0000      -0.516305       -14.0494 
[...]
 88:   1218.65   0.001521    7.69  0.000390  (-0.005450 -0.005273 -0.018222)
 89:   1219.47   0.002783   14.07  0.000712  (-0.024953 -0.003525  0.008785)
 90:   1220.80   0.000000    0.00  0.000000  (-0.000016 -0.000005 -0.000012)
 91:   1293.15   0.000000    0.00  0.000000  ( 0.000069  0.000056  0.000109)
 92:   1295.26   0.005239   26.48  0.001262  (-0.010883 -0.009534 -0.032447)
 93:   1295.32   0.000088    0.44  0.000021  ( 0.001367  0.001219  0.004219)
 94:   1301.92   0.005546   28.03  0.001329  ( 0.031654  0.011763 -0.013750)
 95:   1410.48   0.000000    0.00  0.000000  (-0.000044 -0.000044  0.000006)
 96:   1411.57   0.000000    0.00  0.000000  ( 0.000049  0.000044  0.000118)
 97:   1413.09   0.002380   12.03  0.000526  ( 0.007511  0.006570  0.020639)
 98:   1415.23   0.003152   15.93  0.000695  (-0.017814 -0.015897  0.011179)
 99:   1457.89   0.000000    0.00  0.000000  (-0.000114  0.000161  0.000007)
100:   1458.93   0.000000    0.00  0.000000  (-0.000080  0.000004 -0.000141)
101:   1459.84   0.002071   10.46  0.000443  ( 0.011065 -0.000916  0.017872)
102:   1460.05   0.016025   80.98  0.003425  (-0.036101  0.046043  0.001357)
103:   1521.93   0.000000    0.00  0.000000  (-0.000039 -0.000010  0.000016)
104:   1522.17   0.000000    0.00  0.000000  ( 0.000022  0.000011  0.000037)
105:   1523.82   0.005065   25.59  0.001037  (-0.008202 -0.008196 -0.030045)
106:   1524.93   0.006465   32.67  0.001323  ( 0.032811  0.010171 -0.011963)
107:   1576.76   0.000000    0.00  0.000000  (-0.000017 -0.000058 -0.000022)
108:   1578.01   0.001465    7.41  0.000290  ( 0.005234  0.004439  0.015579)
109:   1578.09   0.001125    5.68  0.000222  (-0.001731 -0.014098  0.004547)
110:   1580.68   0.000000    0.00  0.000000  (-0.000005 -0.000017 -0.000009)
111:   2144.73   0.346303  1750.07  0.050388  ( 0.186383 -0.122501 -0.025350)
112:   2146.69   0.000012    0.06  0.000002  ( 0.001084 -0.000739 -0.000107)
113:   3275.30   0.000010    0.05  0.000001  (-0.000233  0.000927  0.000281)
114:   3275.32   0.000005    0.03  0.000000  (-0.000166  0.000647  0.000194)
115:   3275.63   0.000002    0.01  0.000000  ( 0.000205 -0.000329 -0.000002)
116:   3275.68   0.000017    0.09  0.000002  (-0.000691  0.001067 -0.000002)
117:   3281.93   0.000404    2.04  0.000038  ( 0.000812  0.005131  0.003380)
118:   3281.94   0.000279    1.41  0.000027  (-0.000660 -0.004287 -0.002781)
119:   3282.33   0.000607    3.07  0.000058  ( 0.002098 -0.005763  0.004481)
120:   3282.35   0.000292    1.48  0.000028  (-0.001459  0.003985 -0.003124)
121:   3299.21   0.000020    0.10  0.000002  ( 0.001044 -0.000718 -0.000503)
122:   3299.27   0.000023    0.11  0.000002  (-0.001108  0.000776  0.000548)
123:   3299.47   0.000003    0.02  0.000000  (-0.000526  0.000222 -0.000010)
124:   3299.48   0.000055    0.28  0.000005  (-0.002097  0.000878 -0.000065)
125:   3594.27   0.000031    0.15  0.000003  (-0.000373 -0.000442 -0.001522)
126:   3595.11   0.048835  246.79  0.004239  ( 0.017020  0.017688  0.060303)
127:   3598.67   0.000005    0.02  0.000000  (-0.000624  0.000010  0.000112)
128:   3602.38   0.141626  715.72  0.012269  ( 0.105940 -0.004392 -0.032033)

* The epsilon (eps) is given for a Dirac delta lineshape.
** The dipole moment derivative (T) already includes vibrational overlap.

The first frequency considered to be a vibration is 6
The total number of vibrations considered is 123


--------------------------
THERMOCHEMISTRY AT 298.15K
--------------------------

Temperature         ...   298.15 K
Pressure            ...     1.00 atm
Total Mass          ...   443.41 AMU
Quasi RRHO          ...     True
Cut-Off Frequency   ...     1.00 cm^-1

Throughout the following assumptions are being made:
  (1) The electronic state is orbitally nondegenerate
      but the spin degeneracy is treated
  (2) There are no thermally accessible electronically excited states
  (3) Hindered rotations indicated by low frequency modes are not
      treated as such but are treated as vibrations and this may
      cause some error
  (4) All equations used are the standard statistical mechanics
      equations for an ideal gas
  (5) All vibrations are strictly harmonic

freq.      19.94  E(vib)   ...       0.56 
freq.      20.50  E(vib)   ...       0.56 
freq.      23.86  E(vib)   ...       0.56 
freq.      25.05  E(vib)   ...       0.56 
freq.      32.63  E(vib)   ...       0.55 
freq.      37.89  E(vib)   ...       0.54 
freq.      40.91  E(vib)   ...       0.54 
freq.      46.04  E(vib)   ...       0.53 
freq.      54.72  E(vib)   ...       0.52 
freq.      59.73  E(vib)   ...       0.51 
freq.      64.55  E(vib)   ...       0.50 
freq.      70.62  E(vib)   ...       0.50 
freq.      97.10  E(vib)   ...       0.46 
freq.     124.65  E(vib)   ...       0.43 
freq.     167.62  E(vib)   ...       0.38 
freq.     174.60  E(vib)   ...       0.38 
freq.     179.34  E(vib)   ...       0.37 
freq.     182.45  E(vib)   ...       0.37 
freq.     198.26  E(vib)   ...       0.35 
freq.     198.91  E(vib)   ...       0.35 
freq.     201.81  E(vib)   ...       0.35 
freq.     213.77  E(vib)   ...       0.34 
freq.     221.39  E(vib)   ...       0.33 
freq.     225.00  E(vib)   ...       0.33 
freq.     228.50  E(vib)   ...       0.32 
freq.     235.10  E(vib)   ...       0.32 
freq.     237.05  E(vib)   ...       0.32 
freq.     252.75  E(vib)   ...       0.30 
freq.     327.02  E(vib)   ...       0.24 
freq.     356.20  E(vib)   ...       0.22 
freq.     407.92  E(vib)   ...       0.19 
freq.     513.95  E(vib)   ...       0.13 
freq.     518.06  E(vib)   ...       0.13 
freq.     522.85  E(vib)   ...       0.13 
freq.     523.37  E(vib)   ...       0.13 
freq.     609.15  E(vib)   ...       0.10 
freq.     615.63  E(vib)   ...       0.10 
freq.     619.35  E(vib)   ...       0.09 
freq.     620.81  E(vib)   ...       0.09 
freq.     659.26  E(vib)   ...       0.08 
freq.     659.69  E(vib)   ...       0.08 
freq.     667.59  E(vib)   ...       0.08 
freq.     673.33  E(vib)   ...       0.08 
freq.     706.57  E(vib)   ...       0.07 
freq.     718.66  E(vib)   ...       0.07 
freq.     725.37  E(vib)   ...       0.06 
freq.     728.63  E(vib)   ...       0.06 
freq.     770.64  E(vib)   ...       0.05 
freq.     773.22  E(vib)   ...       0.05 
freq.     773.35  E(vib)   ...       0.05 
freq.     775.37  E(vib)   ...       0.05 
freq.     862.02  E(vib)   ...       0.04 
freq.     862.47  E(vib)   ...       0.04 
freq.     867.29  E(vib)   ...       0.04 
freq.     869.02  E(vib)   ...       0.04 
freq.     869.35  E(vib)   ...       0.04 
freq.     870.44  E(vib)   ...       0.04 
freq.     918.09  E(vib)   ...       0.03 
freq.     919.27  E(vib)   ...       0.03 
freq.     921.11  E(vib)   ...       0.03 
freq.     921.81  E(vib)   ...       0.03 
freq.     930.53  E(vib)   ...       0.03 
freq.     931.11  E(vib)   ...       0.03 
freq.     931.55  E(vib)   ...       0.03 
freq.     931.95  E(vib)   ...       0.03 
freq.     961.02  E(vib)   ...       0.03 
freq.     964.63  E(vib)   ...       0.03 
freq.     965.05  E(vib)   ...       0.03 
freq.     965.79  E(vib)   ...       0.03 
freq.    1071.82  E(vib)   ...       0.02 
freq.    1072.17  E(vib)   ...       0.02 
freq.    1072.57  E(vib)   ...       0.02 
freq.    1075.71  E(vib)   ...       0.02 
freq.    1081.33  E(vib)   ...       0.02 
freq.    1082.84  E(vib)   ...       0.02 
freq.    1083.26  E(vib)   ...       0.02 
freq.    1084.63  E(vib)   ...       0.02 
freq.    1159.92  E(vib)   ...       0.01 
freq.    1162.05  E(vib)   ...       0.01 
freq.    1162.96  E(vib)   ...       0.01 
freq.    1166.78  E(vib)   ...       0.01 
freq.    1217.57  E(vib)   ...       0.01 
freq.    1218.65  E(vib)   ...       0.01 
freq.    1219.47  E(vib)   ...       0.01 
freq.    1220.80  E(vib)   ...       0.01 
freq.    1293.15  E(vib)   ...       0.01 
freq.    1295.26  E(vib)   ...       0.01 
freq.    1295.32  E(vib)   ...       0.01 
freq.    1301.92  E(vib)   ...       0.01 
freq.    1410.48  E(vib)   ...       0.00 
freq.    1411.57  E(vib)   ...       0.00 
freq.    1413.09  E(vib)   ...       0.00 
freq.    1415.23  E(vib)   ...       0.00 
freq.    1457.89  E(vib)   ...       0.00 
freq.    1458.93  E(vib)   ...       0.00 
freq.    1459.84  E(vib)   ...       0.00 
freq.    1460.05  E(vib)   ...       0.00 
freq.    1521.93  E(vib)   ...       0.00 
freq.    1522.17  E(vib)   ...       0.00 
freq.    1523.82  E(vib)   ...       0.00 
freq.    1524.93  E(vib)   ...       0.00 
freq.    1576.76  E(vib)   ...       0.00 
freq.    1578.01  E(vib)   ...       0.00 
freq.    1578.09  E(vib)   ...       0.00 
freq.    1580.68  E(vib)   ...       0.00 
freq.    2144.73  E(vib)   ...       0.00 
freq.    2146.69  E(vib)   ...       0.00 
freq.    3275.30  E(vib)   ...       0.00 
freq.    3275.32  E(vib)   ...       0.00 
freq.    3275.63  E(vib)   ...       0.00 
freq.    3275.68  E(vib)   ...       0.00 
freq.    3281.93  E(vib)   ...       0.00 
freq.    3281.94  E(vib)   ...       0.00 
freq.    3282.33  E(vib)   ...       0.00 
freq.    3282.35  E(vib)   ...       0.00 
freq.    3299.21  E(vib)   ...       0.00 
freq.    3299.27  E(vib)   ...       0.00 
freq.    3299.47  E(vib)   ...       0.00 
freq.    3299.48  E(vib)   ...       0.00 
freq.    3594.27  E(vib)   ...       0.00 
freq.    3595.11  E(vib)   ...       0.00 
freq.    3598.67  E(vib)   ...       0.00 
freq.    3602.38  E(vib)   ...       0.00 

------------
INNER ENERGY
------------

The inner energy is: U= E(el) + E(ZPE) + E(vib) + E(rot) + E(trans)
    E(el)   - is the total energy from the electronic structure calculation
              = E(kin-el) + E(nuc-el) + E(el-el) + E(nuc-nuc)
    E(ZPE)  - the the zero temperature vibrational energy from the frequency calculation
    E(vib)  - the the finite temperature correction to E(ZPE) due to population
              of excited vibrational states
    E(rot)  - is the rotational thermal energy
    E(trans)- is the translational thermal energy

Summary of contributions to the inner energy U:
Electronic energy                ...  -3036.77372170 Eh
Zero point energy                ...      0.31827048 Eh     199.72 kcal/mol
Thermal vibrational correction   ...      0.02453751 Eh      15.40 kcal/mol
Thermal rotational correction    ...      0.00141627 Eh       0.89 kcal/mol
Thermal translational correction ...      0.00141627 Eh       0.89 kcal/mol
-----------------------------------------------------------------------
Total thermal energy                  -3036.42808117 Eh


Summary of corrections to the electronic energy:
(perhaps to be used in another calculation)
Total thermal correction                  0.02737005 Eh      17.17 kcal/mol
Non-thermal (ZPE) correction              0.31827048 Eh     199.72 kcal/mol
-----------------------------------------------------------------------
Total correction                          0.34564053 Eh     216.89 kcal/mol


--------
ENTHALPY
--------

The enthalpy is H = U + kB*T
                kB is Boltzmann's constant
Total thermal energy              ...  -3036.42808117 Eh 
Thermal Enthalpy correction       ...      0.00094421 Eh       0.59 kcal/mol
-----------------------------------------------------------------------
Total Enthalpy                    ...  -3036.42713697 Eh


Note: Only C1 symmetry has been detected, increase convergence thresholds 
      if your molecule has a higher symmetry. Symmetry factor of 1.0 is   
      used for the rotational entropy correction. 
 

Note: Rotational entropy computed according to Herzberg 
Infrared and Raman Spectra, Chapter V,1, Van Nostrand Reinhold, 1945 
Point Group:  C1, Symmetry Number:   1  
Rotational constants in cm-1:     0.005648     0.004826     0.004707 

Vibrational entropy computed according to the QRRHO of S. Grimme
Chem.Eur.J. 2012 18 9955 using a reference frequency of 100.0 cm-1


-------
ENTROPY
-------

The entropy contributions are T*S = T*(S(el)+S(vib)+S(rot)+S(trans))
     S(el)   - electronic entropy
     S(vib)  - vibrational entropy
     S(rot)  - rotational entropy
     S(trans)- translational entropy
The entropies will be listed as multiplied by the temperature to get
units of energy

Electronic entropy                ...      0.00065446 Eh      0.41 kcal/mol
Vibrational entropy               ...      0.04575230 Eh     28.71 kcal/mol
Rotational entropy                ...      0.01700229 Eh     10.67 kcal/mol
Translational entropy             ...      0.02098054 Eh     13.17 kcal/mol
-----------------------------------------------------------------------
Final entropy term                ...      0.08438959 Eh     52.96 kcal/mol

In case the symmetry of your molecule has not been determined correctly
or in case you have a reason to use a different symmetry number we print 
out the resulting rotational entropy values for sn=1,12:

 non-linear molecules -----------------------------------
|  sn= 1 | S(rot)=       0.01700229 Eh     10.67 kcal/mol|
|  sn= 2 | S(rot)=       0.01634784 Eh     10.26 kcal/mol|
|  sn= 3 | S(rot)=       0.01596500 Eh     10.02 kcal/mol|
|  sn= 4 | S(rot)=       0.01569338 Eh      9.85 kcal/mol|
|  sn= 5 | S(rot)=       0.01548269 Eh      9.72 kcal/mol|
|  sn= 6 | S(rot)=       0.01531055 Eh      9.61 kcal/mol|
|  sn= 7 | S(rot)=       0.01516500 Eh      9.52 kcal/mol|
|  sn= 8 | S(rot)=       0.01503892 Eh      9.44 kcal/mol|
|  sn= 9 | S(rot)=       0.01492771 Eh      9.37 kcal/mol|
|  sn=10 | S(rot)=       0.01482824 Eh      9.30 kcal/mol|
|  sn=11 | S(rot)=       0.01473825 Eh      9.25 kcal/mol|
|  sn=12 | S(rot)=       0.01465609 Eh      9.20 kcal/mol|
 linear molecules ---------------------------------------
|  Dinfh | S(rot)=       0.01038531 Eh      6.52 kcal/mol|
|  Cinfv | S(rot)=       0.01103976 Eh      6.93 kcal/mol|
 --------------------------------------------------------


-------------------
GIBBS FREE ENERGY
-------------------

The Gibbs free energy is G = H - T*S

Total enthalpy                    ...  -3036.42713697 Eh 
Total entropy correction          ...     -0.08438959 Eh    -52.96 kcal/mol
-----------------------------------------------------------------------
Final Gibbs free energy         ...  -3036.51152656 Eh

For completeness - the Gibbs free energy minus the electronic energy
G-E(el)                           ...      0.26219515 Eh    164.53 kcal/mol


Maximum memory used throughout the entire PROP-calculation: 1165.2 MB

--------------------------------
SUGGESTED CITATIONS FOR THIS RUN
--------------------------------

Below you find a list of papers that are relevant to this ORCA run
We neither can nor want to force you to cite these papers, but we appreciate if you do
You receive ORCA, which is the product of decades of hard work by many enthusiastic individuals, for free
The only thing we kindly ask in return is that you cite our papers,
We deeply appreciate it, if you show your appreciation for ORCA by not just citing the generic ORCA reference.

Please note that relegating all ORCA citations to the supporting information does *not* help us.
SI sections are not indexed - citations you put there will not count into any citation statistics
But we need these citations in order to attract the funding resources that allow us to do what we are doing

Therefore, if you are a happy ORCA user, please consider citing a few of the papers listed below in the main body of your paper

In addition to the list printed below, the program has created the file BIKZUQ10-S6.bibtex that contains the list in bibtex format
You can import this file easily into all common literature databanks and citation aid programs


List of essential papers. We consider these as the minimum necessary citations

  1. Neese,F.
     Software update: the ORCA program system, version 5.0
     WIRES Comput. Molec. Sci., 2022 12(1)e1606
     doi.org/10.1002/wcms.1606

List of papers to cite with high priority. The work reported in these papers was absolutely
necessary for this run to complete.
Our perspective: the developers of density functionals and basis sets usually get cited in chemistry papers
Good! But without the algorithms to do something with them, the functionals or basis sets would not do anything.
Hence, in our opinion, the algorithm design and method developments papers are equally worthy of getting cited

  1. Neese,F.
     An improvement of the resolution of the identity approximation for the formation of the Coulomb matrix
     J. Comp. Chem., 2003 24(14)1740-1747
     doi.org/10.1002/jcc.10318
  2. Neese,F.; Wennmohs,F.; Hansen,A.; Becker,U.
     Efficient, approximate and parallel Hartree-Fock and hybrid DFT calculations. A 'chain-of-spheres' algorithm for the Hartree-Fock exchange
     Chem. Phys., 2009 356(1-3)98-109
     doi.org/10.1016/j.chemphys.2008.10.036
  3. Bykov,D.; Petrenko,T.; Izsak,R.; Kossmann,S.; Becker,U.; Valeev,E.; Neese,F.
     Efficient implementation of the analytic second derivatives of Hartree-Fock and hybrid DFT energies: a detailed analysis of different approximations
     Molec. Phys., 2015 113 1961-1977
     doi.org/10.1080/00268976.2015.1025114
  4. Helmich-Paris,B.; de Souza,B.; Neese,F.; Izsák,R.
     An improved chain of spheres for exchange algorithm
     J. Chem. Phys., 2021 155 104109
     doi.org/doi: 10.1063/5.0058766.
  5. Helmich-Paris,B.
     A trust-region augmented Hessian implementation for restricted and unrestricted Hartree–Fock and Kohn–Sham methods
     J. Chem. Phys., 2021 154 164104
     doi.org/10.1063/5.0040798
  6. Neese,F.
     The SHARK Integral Generation and Digestion System
     J. Comp. Chem., 2022  1-16
     doi.org/10.1002/jcc.26942

List of suggested additional citations. These are papers that are important in the 'surrounding' of 
of this run, or papers that preceded the highly important papers. If you like your results we are grateful for a citation.

  1. Izsak,R.; Neese,F.
     An overlap fitted chain of spheres exchange method
     J. Chem. Phys., 2011 135 144105
     doi.org/10.1063/1.3646921
  2. Izsak,R.; Hansen,A.; Neese,F.
     The resolution of identity and chain of spheres approximations for the LPNO-CCSD singles Fock term
     Molec. Phys., 2012 110 2413-2417
     doi.org/10.1080/00268976.2012.687466
  3. Neese,F.
     The ORCA program system
     WIRES Comput. Molec. Sci., 2012 2(1)73-78
     doi.org/10.1002/wcms.81
  4. Izsak,R.; Neese,F.; Klopper,W.
     Robust fitting techniques in the chain of spheres approximation to the Fock exchange: The role of the complementary space
     J. Chem. Phys., 2013 139 
     doi.org/10.1063/1.4819264
  5. Neese,F.
     Software update: the ORCA program system, version 4.0
     WIRES Comput. Molec. Sci., 2018 8(1)1-6
     doi.org/10.1002/wcms.1327
  6. Neese,F.; Wennmohs,F.; Becker,U.; Riplinger,C.
     The ORCA quantum chemistry program package
     J. Chem. Phys., 2020 152 Art. No. L224108
     doi.org/10.1063/5.0004608

List of optional additional citations

  1. Neese,F.
     Approximate second-order SCF convergence for spin unrestricted wavefunctions
     Chem. Phys. Lett., 2000 325(1-3)93-98
     doi.org/10.1016/s0009-2614(00)00662-x

Timings for individual modules:

Sum of individual times          ...    22455.497 sec (= 374.258 min)
Startup calculation              ...      231.343 sec (=   3.856 min)   1.0 %
SCF iterations                   ...     7655.213 sec (= 127.587 min)  34.1 %
Property integrals               ...     2561.874 sec (=  42.698 min)  11.4 %
SCF Response                     ...    10182.321 sec (= 169.705 min)  45.3 %
Property calculations            ...      775.420 sec (=  12.924 min)   3.5 %
SCF Gradient evaluation          ...     1048.746 sec (=  17.479 min)   4.7 %
Geometry relaxation              ...        0.582 sec (=   0.010 min)   0.0 %
                             ****ORCA TERMINATED NORMALLY****
TOTAL RUN TIME: 0 days 6 hours 14 minutes 49 seconds 480 msec
