
                                 *****************
                                 * O   R   C   A *
                                 *****************

                                            #,                                       
                                            ###                                      
                                            ####                                     
                                            #####                                    
                                            ######                                   
                                           ########,                                 
                                     ,,################,,,,,                         
                               ,,#################################,,                 
                          ,,##########################################,,             
                       ,#########################################, ''#####,          
                    ,#############################################,,   '####,        
                  ,##################################################,,,,####,       
                ,###########''''           ''''###############################       
              ,#####''   ,,,,##########,,,,          '''####'''          '####       
            ,##' ,,,,###########################,,,                        '##       
           ' ,,###''''                  '''############,,,                           
         ,,##''                                '''############,,,,        ,,,,,,###''
      ,#''                                            '''#######################'''  
     '                                                          ''''####''''         
             ,#######,   #######,   ,#######,      ##                                
            ,#'     '#,  ##    ##  ,#'     '#,    #''#        ,####,   ,####,        
            ##       ##  ##   ,#'  ##            #'  '#       #'       #'  '#        
            ##       ##  #######   ##           ,######,      #####,   #    #        
            '#,     ,#'  ##    ##  '#,     ,#' ,#      #,     #,   #   #,  ,#        
             '#######'   ##     ##  '#######'  #'      '#     '####' # '####'        



                #########################################################
                #                        -***-                          #
                #          Department of theory and spectroscopy        #
                #                                                       #
                #                      Frank Neese                      #
                #                                                       #
                #     Directorship, Architecture, Infrastructure        #
                #                    SHARK, DRIVERS                     #
                #        Core code/Algorithms in most modules           #
                #                                                       #
                #        Max Planck Institute fuer Kohlenforschung      #
                #                Kaiser Wilhelm Platz 1                 #
                #                 D-45470 Muelheim/Ruhr                 #
                #                      Germany                          #
                #                                                       #
                #                  All rights reserved                  #
                #                        -***-                          #
                #########################################################


                         Program Version 6.0.1  -  RELEASE   -


 With contributions from (in alphabetic order):
[Max-Planck-Institut fuer Kohlenforschung]                               
  Daniel Aravena         : Magnetic Suceptibility                        
  Michael Atanasov       : Ab Initio Ligand Field Theory (pilot matlab implementation)
  Alexander A. Auer      : GIAO ZORA, VPT2 properties, NMR spectrum      
  Ute Becker             : All parallelization in ORCA, NUMFREQ, NUMCALC 
  Giovanni Bistoni       : ED, misc. LED, open-shell LED, HFLD           
  Martin Brehm           : Molecular dynamics                            
  Dmytro Bykov           : pre 5.0 version of the SCF Hessian            
  Marcos Casanova-Páez   : Triplet and SCS-CIS(D). UHF-(DLPNO)-IP/EA/STEOM-CCSD. UHF-CVS-IP/STEOM-CCSD   
  Vijay G. Chilkuri      : MRCI spin determinant printing, contributions to CSF-ICE 
  Pauline Colinet        : FMM embedding                                 
  Dipayan Datta          : RHF DLPNO-CCSD density                        
  Achintya Kumar Dutta   : EOM-CC, STEOM-CC                              
  Nicolas Foglia         : Exact transition moments, OPA infrastructure, MCD improvements    
  Dmitry Ganyushin       : Spin-Orbit,Spin-Spin,Magnetic field MRCI      
  Miquel Garcia-Rates    : C-PCM and meta-GGA Hessian, CCSD/C-PCM, Gaussian charge scheme 
  Tiago L. C. Gouveia    : GS-ROHF, GS-ROCIS                             
  Yang Guo               : DLPNO-NEVPT2, F12-NEVPT2, CIM, IAO-localization        
  Andreas Hansen         : Spin unrestricted coupled pair/coupled cluster methods 
  Ingolf Harden          : AUTO-CI MPn and infrastructure                
  Benjamin Helmich-Paris : MC-RPA, TRAH-(SCF,CASSCF), AVAS, COSX integrals, SCF dyn. polar. 
  Lee Huntington         : MR-EOM, pCC                                   
  Robert Izsak           : Overlap fitted RIJCOSX, COSX-SCS-MP3, EOM     
  Riya Kayal             : Wick's Theorem for AUTO-CI, AUTO-CI UHF-CCSDT 
  Emily Kempfer          : AUTO-CI, RHF CISDT and CCSDT                  
  Christian Kollmar      : KDIIS, OOCD, Brueckner-CCSD(T), CCSD density, CASPT2, CASPT2-K, improved NEVPT2 
  Axel Koslowski         : Symmetry handling                             
  Simone Kossmann        : meta-GGA functionals, TD-DFT gradient, OOMP2, (MP2 Hessian; deprecated post 5.0) 
  Lucas Lang             : DCDCAS                                        
  Marvin Lechner         : AUTO-CI (C++ implementation), FIC-MRCC        
  Spencer Leger          : CASSCF response                               
  Dagmar Lenk            : GEPOL surface, SMD, ORCA-2-JSON               
  Dimitrios Liakos       : Extrapolation schemes; Compound Job, initial MDCI parallelization 
  Dimitrios Manganas     : Further ROCIS development; embedding schemes. LFT, Crystal Embedding 
  Dimitrios Pantazis     : SARC Basis sets                               
  Anastasios Papadopoulos: AUTO-CI, single reference methods and gradients 
  Taras Petrenko         : pre 6.0 DFT Hessian and TD-DFT gradient, (ASA, deprecated), ECA, 1-Electron XAS/XES, NRVS 
  Peter Pinski           : DLPNO-MP2, DLPNO-MP2 Gradient                 
  Christoph Reimann      : Effective Core Potentials                     
  Marius Retegan         : Local ZFS, SOC                                
  Christoph Riplinger    : Optimizer, TS searches, QM/MM, DLPNO-CCSD(T), (RO)-DLPNO pert. Triples 
  Michael Roemelt        : Original ROCIS implementation                 
  Masaaki Saitow         : Open-shell DLPNO-CCSD energy and density      
  Barbara Sandhoefer     : DKH picture change effects                    
  Kantharuban Sivalingam : CASSCF convergence/infrastructure, NEVPT2 and variants, FIC-MRCI 
  Bernardo de Souza      : ESD, SOC TD-DFT                               
  Georgi L. Stoychev     : AutoAux, RI-MP2 NMR, DLPNO-MP2 response, X2C  
  Van Anh Tran           : RI-MP2 g-tensors                              
  Willem Van den Heuvel  : Paramagnetic NMR                              
  Zikuan Wang            : NOTCH, Electric field optimization            
  Frank Wennmohs         : Technical directorship and infrastructure     
  Hang Xu                : AUTO-CI-Response properties                   
                                                                         
[FACCTs GmbH]                                                            
  Markus Bursch, Miquel Garcia-Rates, Christoph Riplinger, Bernardo de Souza, Georgi L. Stoychev 
                                                                 
  APM, Basis sets (HGBS, AHGBS, def-TZVP (Ac-Lr), def2-XVPD (La-Lu)), CI-OPT, improved COSX, DLPNO-Multilevel,           
  DOCKER, DRACO, updates on ESD, GOAT, IRC, LR-CPCM, MBIS, meta-GGA TD-DFT gradient, ML-optimized integration grids, 
  MM, NACMEs, nearIR, NEB, NEB-TS, NL-DFT gradient (VV10), 2- and 3-layer-ONIOM, interface openCOSMO-RS, QMMM,   
  Crystal-QMMM, SF, symmetry and pop. for TD-DFT, r2SCAN hybrids, SOLVATOR                                   
                                                                         
[Other institutions]                                                     
  V. Asgeirsson          : NEB                                           
  Christoph Bannwarth    : sTDA-DFT, sTD-DFT, PBEh-3c, B97-3c, D3        
  Sebastian Ehlert       : rSCAN, r2SCAN, r2SCAN-3c, D4, dhf basis sets  
  Marvin Friede          : D4 for Fr, Ra, Ac-Lr                          
  Lars Goerigk           : TD-DFT with DH, B97 family of functionals     
  Stefan Grimme          : VdW corrections, initial TS optimization, DFT functionals, gCP, sTDA/sTD-DF 
  Waldemar Hujo          : DFT-NL                                        
  H. Jonsson             : NEB                                           
  Holger Kruse           : gCP                                           
  Marcel Mueller         : wB97X-3c, vDZP basis set                      
  Hagen Neugebauer       : wr2SCAN                                       
  Tobias Risthaus        : range-separated hybrid DFT                    
  Lukas Wittmann         : regularized MP2, r2SCAN double-hybrids, wr2SCAN        
                                                                         
We gratefully acknowledge several colleagues who have allowed us to      
interface, adapt or use parts of their codes:                            
  Ed Valeev, F. Pavosevic, A. Kumar             : LibInt (2-el integral package), F12 methods 
  Garnet Chan, S. Sharma, J. Yang, R. Olivares  : DMRG                   
  Ulf Ekstrom                                   : XCFun DFT Library      
  Mihaly Kallay                                 : mrcc  (arbitrary order and MRCC methods)
  Frank Weinhold                                : gennbo (NPA and NBO analysis)           
  Simon Mueller                                 : openCOSMO-RS                            
  Christopher J. Cramer and Donald G. Truhlar   : smd solvation model                     
  S Lehtola, MJT Oliveira, MAL Marques          : LibXC Library                           
  Liviu Ungur et al                             : ANISO software                          


 Your calculation uses the libint2 library for the computation of 2-el integrals
 For citations please refer to: http://libint.valeyev.net

 Your ORCA version has been built with support for libXC version: 6.2.2
 For citations please refer to: https://libxc.gitlab.io

 This ORCA versions uses:
   CBLAS   interface :  Fast vector & matrix operations
   LAPACKE interface :  Fast linear algebra routines
   SCALAPACK package :  Parallel linear algebra routines
   Shared memory     :  Shared parallel matrices
   BLAS/LAPACK       :  OpenBLAS 0.3.27  USE64BITINT DYNAMIC_ARCH NO_AFFINITY Cooperlake SINGLE_THREADED
        Core in use  :  Cooperlake
   Copyright (c) 2011-2014, The OpenBLAS Project


NOTE: MaxCore=3600 MB was set to SCF,MP2,MDCI,CIPSI,MRCI and CIS
      => If you want to overwrite this, your respective input block should be placed after the MaxCore statement
Warning: RI is on but no J-basis has been assigned. Assigning Def2/J (nothing to worry about!)
================================================================================

----- Orbital basis set information -----
Your calculation utilizes the basis: def2-TZVP
   F. Weigend and R. Ahlrichs, Phys. Chem. Chem. Phys. 7, 3297 (2005).

----- AuxJ basis set information -----
Your calculation utilizes the auxiliary basis: def2/J
   F. Weigend, Phys. Chem. Chem. Phys. 8, 1057 (2006).

================================================================================
                                        WARNINGS
                       Please study these warnings very carefully!
================================================================================


WARNING: your system is open-shell and RHF/RKS was chosen
  ===> : WILL SWITCH to UHF/UKS


WARNING: Geometry Optimization
  ===> : Switching off AutoStart
         For restart on a previous wavefunction, please use MOREAD

================================================================================
                                       INPUT FILE
================================================================================
NAME = BUBGUB-S6.inp
|  1> ! PBE0 def2-TZVP  SlowConv TightOpt Freq DEFGRID3
|  2> 
|  3> %maxcore 3600
|  4> 
|  5> %pal
|  6>     nprocs 16
|  7> end
|  8> 
|  9> *xyz 0 2
| 10> Mn 4.6042518124191565 4.374510951067312 2.008925050280294
| 11> C 6.384799939193339 4.8648144813810905 3.345168585954963
| 12> C 6.083184840438603 3.458424313480848 3.4145252451288077
| 13> C 6.150843891806778 2.9625564308785908 2.07133442182367
| 14> H 6.028796230748382 1.9277898518266332 1.7941428221448366
| 15> C 6.528161188374859 4.0003181280963 1.1770100822051206
| 16> C 6.615714322206523 5.161396032184023 1.9760058699040235
| 17> H 6.885410630981906 6.13665351520788 1.6066085346710728
| 18> C 2.633711586140387 5.433293615144978 2.4226613396073815
| 19> C 3.075200513044524 5.718260064754551 1.0820868432731996
| 20> C 3.2179920367412316 4.453932856545662 0.4272869324491123
| 21> H 3.483744338702495 4.330605230194059 -0.6087692891278949
| 22> C 2.848775963241025 3.3945889901661475 1.2943795495616683
| 23> C 2.5473311354785055 4.018686808138817 2.527677798026476
| 24> H 2.2110554439840113 3.4977021050099677 3.4097494583301735
| 25> C 6.748343457199077 5.931743582064448 4.387841202678501
| 26> C 6.6135015730738145 7.340137127038614 3.7928114504354853
| 27> H 7.3613007378681745 7.5349422548163805 3.0223450466251243
| 28> H 6.767026304388113 8.080979812525966 4.581276085793372
| 29> H 5.629388434930693 7.5031009242002344 3.356620920509419
| 30> C 5.926990676365726 5.92675083745577 5.674527885821937
| 31> H 4.872736649970801 6.1155744707222155 5.470493994571235
| 32> H 6.283250156796616 6.725184573271393 6.331210018449084
| 33> H 6.003354528504584 4.996358125627598 6.230940244906901
| 34> C 8.239474371999343 5.762066077283227 4.731071388784728
| 35> H 8.45599205687922 4.812212358603891 5.215884579029212
| 36> H 8.556920552925297 6.565387360557936 5.402967424668639
| 37> H 8.846359875940726 5.820191416009903 3.8244873539134296
| 38> C 5.926428789785487 2.4909206500543384 4.601400749069223
| 39> C 4.630895262893044 2.6902216421079546 5.389318413438303
| 40> H 4.5340518797677625 3.696639477547114 5.789186230311058
| 41> H 4.5954127672724825 1.9900921056064755 6.229699281674663
| 42> H 3.7658529327727144 2.4988134247640987 4.752630621038914
| 43> C 7.128885590541334 2.580987023140675 5.550493664021343
| 44> H 8.066859584167073 2.4629003837252506 5.002282431011495
| 45> H 7.0680703729670675 1.774974423466603 6.287211543117445
| 46> H 7.173110247841116 3.5172564146838288 6.100981552592019
| 47> C 5.921977769221003 1.0382076193721623 4.110231601079743
| 48> H 5.082463072275513 0.8297368164978879 3.450052471012057
| 49> H 5.831514040496538 0.37271636627250704 4.972345478545629
| 50> H 6.848574508241567 0.7838907199387366 3.590147997511865
| 51> C 7.1372949426230425 3.831767067984687 -0.20222042612123756
| 52> C 8.552618747723344 3.269974687075429 0.0069171831577122846
| 53> H 9.145585178951174 3.9339709557900675 0.6406662609936343
| 54> H 9.06723931941526 3.1622575103819037 -0.9528431819721193
| 55> H 8.518340629262154 2.2895164071862397 0.48745266974649726
| 56> C 7.262364204611695 5.168192170933485 -0.9284654814155734
| 57> H 6.292521423157118 5.652210026043371 -1.0489216416607663
| 58> H 7.688449907908198 5.014478071926154 -1.9234378309560622
| 59> H 7.920413046169265 5.8567883399084 -0.39332257099544277
| 60> C 6.3594129334663005 2.855855124227174 -1.0765964195046376
| 61> H 6.263687021381736 1.8803548940286123 -0.5947799244687783
| 62> H 6.8809343511556476 2.7027192536904483 -2.02585778444008
| 63> H 5.35813833654998 3.2281235698955792 -1.2944704418860478
| 64> C 2.0226431650664356 6.284546913856723 3.5435649214130085
| 65> C 2.667467247540791 7.646179332088461 3.787452586861674
| 66> H 3.711410625998094 7.54376508476649 4.0846454208217695
| 67> H 2.141613085436196 8.15159140517883 4.602158081893023
| 68> H 2.6232987234148717 8.302745118006259 2.922293517213244
| 69> C 0.5314764223743691 6.480615493492304 3.2153266001254805
| 70> H 0.3745078201756197 7.058416914833551 2.3062559838734353
| 71> H 0.03739583914595376 7.004427254227446 4.039391147637078
| 72> H 0.04035799864522695 5.513475522032075 3.085623759884915
| 73> C 2.0663847923515153 5.532747141657173 4.8807525848724875
| 74> H 1.399282050634364 4.669235855309418 4.888549773213433
| 75> H 1.7359924053305407 6.199206316191308 5.681314472082265
| 76> H 3.070724439088684 5.184722578186417 5.117010264657183
| 77> C 3.2106631937001664 7.023882807910409 0.2795330544324977
| 78> C 3.4657116662573224 6.712067259336925 -1.2009177302048242
| 79> H 4.378462790581931 6.135991286081081 -1.3527255722950446
| 80> H 3.57519040600866 7.65107086578922 -1.7489314532769156
| 81> H 2.633923185235869 6.161563323157547 -1.6465207422181238
| 82> C 1.8989230688248995 7.820185876982928 0.2971717527062822
| 83> H 1.0572809817829842 7.190904671921616 -0.0024045280069365524
| 84> H 1.9681308091810397 8.648476223380541 -0.41379242678220074
| 85> H 1.6721749875784762 8.249126678929777 1.270411556267158
| 86> C 4.3617177987697495 7.917781194785399 0.7431546016748559
| 87> H 4.279121486336005 8.19663530928876 1.7907212734621893
| 88> H 4.378546595341656 8.838189025104194 0.1513876994551501
| 89> H 5.317784995199255 7.410896406413922 0.6068843424735196
| 90> C 2.3999549370971742 2.001603248913358 0.8895407029989766
| 91> C 2.699429138841405 0.9553232845223625 1.9630434992239538
| 92> H 2.245219999070906 -0.00013627859836223832 1.692547955621118
| 93> H 1.7708788716016843 1.3850653337346361 3.043975149865431
| 94> H 3.4187775767 0.819614709 2.573920343
| 95> C 3.013242978235478 1.5526165902654763 -0.42740530104589586
| 96> H 3.045039665735276 2.136796160384469 -1.188382155994742
| 97> H 2.6120066873366388 0.5757357818462849 -0.71117684560981
| 98> H 4.28689252700534 1.2578862585673871 0.032578039508088075
| 99> C 0.8721532775191682 2.07104299981961 0.7253586891653351
|100> H 0.668946630335516 2.8375395933236893 -0.1533007277398949
|101> H 0.32581201350268535 2.4216281258802796 1.5137702239307098
|102> H 0.47962227874359425 1.1041677818013613 0.3958206520366654
|103> *
|104> 
|105>                          ****END OF INPUT****
================================================================================

                       *****************************
                       * Geometry Optimization Run *
                       *****************************

Geometry optimization settings:
Update method            Update   .... BFGS
Choice of coordinates    CoordSys .... (2022) Redundant Internals
Initial Hessian          InHess   .... Almloef's Model
Max. no of cycles        MaxIter  .... 279

Convergence Tolerances:
Energy Change            TolE     ....  1.0000e-06 Eh
Max. Gradient            TolMAXG  ....  1.0000e-04 Eh/bohr
RMS Gradient             TolRMSG  ....  3.0000e-05 Eh/bohr
Max. Displacement        TolMAXD  ....  1.0000e-03 bohr
RMS Displacement         TolRMSD  ....  6.0000e-04 bohr
Strict Convergence                .... False

------------------------------------------------------------------------------
                        ORCA OPTIMIZATION COORDINATE SETUP
------------------------------------------------------------------------------

The optimization will be done in redundant internal coordinates (2022)
Making redundant internal coordinates   ...  (2022 redundants) done
Evaluating the initial hessian          ...  (Almloef) done
Evaluating the coordinates              ...  done
Calculating the B-matrix                .... done
Calculating the G-matrix                .... done
Diagonalizing the G-matrix              .... done
Small eigenvalue found = 7.137e-03
Small eigenvalue found = 8.098e-03
Small eigenvalue found = 8.556e-03
Small eigenvalue found = 9.968e-03
Small eigenvalue found = 1.110e-02
Small eigenvalue found = 1.244e-02
Small eigenvalue found = 1.277e-02
Small eigenvalue found = 1.518e-02
Small eigenvalue found = 1.917e-02
Small eigenvalue found = 2.054e-02
Small eigenvalue found = 2.394e-02
Small eigenvalue found = 2.563e-02
Small eigenvalue found = 2.623e-02
Small eigenvalue found = 2.784e-02
Small eigenvalue found = 2.792e-02
The first mode is                       ....  419
The number of degrees of freedom        ....  273

    -----------------------------------------------------------------
                    Redundant Internal Coordinates


    -----------------------------------------------------------------
         Definition                    Initial Value    Approx d2E/dq
    -----------------------------------------------------------------
      1. B(C   1,Mn  0)                  2.2795         0.240803   
      2. B(C   2,Mn  0)                  2.2366         0.281995   
      3. B(C   2,C   1)                  1.4400         0.519880   
      4. B(C   3,Mn  0)                  2.0951         0.474150   
      5. B(C   3,C   2)                  1.4334         0.532725   
      6. B(H   4,C   3)                  1.0782         0.376080   
      7. B(C   5,Mn  0)                  2.1292         0.418314   
      8. B(C   5,C   3)                  1.4210         0.557622   
      9. B(C   6,Mn  0)                  2.1602         0.373367   
     10. B(C   6,C   5)                  1.4121         0.575974   
     11. B(C   6,C   1)                  1.4198         0.559967   
     12. B(H   7,C   6)                  1.0772         0.377464   
     13. B(C   8,Mn  0)                  2.2749         0.244930   
     14. B(C   9,C   8)                  1.4399         0.520183   
     15. B(C   9,Mn  0)                  2.2367         0.281875   
     16. B(C  10,C   9)                  1.4310         0.537494   
     17. B(C  10,Mn  0)                  2.1047         0.457789   
     18. B(H  11,C  10)                  1.0767         0.378155   
     19. B(C  12,C  10)                  1.4179         0.563975   
     20. B(C  12,Mn  0)                  2.1337         0.411525   
     21. B(C  13,C  12)                  1.4147         0.570588   
     22. B(C  13,C   8)                  1.4211         0.557285   
     23. B(C  13,Mn  0)                  2.1510         0.386186   
     24. B(H  14,C  13)                  1.0782         0.376027   
     25. B(C  15,C   1)                  1.5355         0.366143   
     26. B(C  16,C  15)                  1.5349         0.366955   
     27. B(H  17,C  16)                  1.0912         0.358484   
     28. B(H  18,C  16)                  1.0927         0.356485   
     29. B(H  19,C  16)                  1.0887         0.361805   
     30. B(C  20,C  15)                  1.5265         0.378406   
     31. B(H  21,C  20)                  1.0903         0.359714   
     32. B(H  22,C  20)                  1.0935         0.355555   
     33. B(H  23,C  20)                  1.0868         0.364406   
     34. B(C  24,C  15)                  1.5395         0.360758   
     35. B(H  25,C  24)                  1.0882         0.362510   
     36. B(H  26,C  24)                  1.0943         0.354427   
     37. B(H  27,C  24)                  1.0925         0.356792   
     38. B(C  28,C   2)                  1.5393         0.361085   
     39. B(C  29,C  28)                  1.5294         0.374454   
     40. B(H  30,C  29)                  1.0873         0.363733   
     41. B(H  31,C  29)                  1.0944         0.354345   
     42. B(H  32,C  29)                  1.0910         0.358764   
     43. B(C  33,C  28)                  1.5345         0.367405   
     44. B(H  34,C  33)                  1.0928         0.356377   
     45. B(H  35,C  33)                  1.0937         0.355281   
     46. B(H  36,C  33)                  1.0870         0.364076   
     47. B(C  37,C  28)                  1.5335         0.368793   
     48. B(H  38,C  37)                  1.0882         0.362549   
     49. B(H  39,C  37)                  1.0928         0.356361   
     50. B(H  40,C  37)                  1.0926         0.356694   
     51. B(C  41,C   5)                  1.5171         0.391639   
     52. B(C  42,C  41)                  1.5370         0.364038   
     53. B(H  43,C  42)                  1.0928         0.356459   
     54. B(H  44,C  42)                  1.0943         0.354406   
     55. B(H  45,C  42)                  1.0924         0.356909   
     56. B(C  46,C  41)                  1.5261         0.378908   
     57. B(H  47,C  46)                  1.0906         0.359326   
     58. B(H  48,C  46)                  1.0932         0.355855   
     59. B(H  49,C  46)                  1.0925         0.356799   
     60. B(C  50,C  41)                  1.5238         0.382148   
     61. B(H  51,C  50)                  1.0922         0.357195   
     62. B(H  52,C  50)                  1.0939         0.355028   
     63. B(H  53,C  50)                  1.0902         0.359795   
     64. B(C  54,C   8)                  1.5344         0.367550   
     65. B(C  55,C  54)                  1.5262         0.378810   
     66. B(H  56,C  55)                  1.0902         0.359779   
     67. B(H  57,C  55)                  1.0935         0.355519   
     68. B(H  58,C  55)                  1.0870         0.364115   
     69. B(C  59,C  54)                  1.5394         0.360891   
     70. B(H  60,C  59)                  1.0885         0.362047   
     71. B(H  61,C  59)                  1.0943         0.354406   
     72. B(H  62,C  59)                  1.0924         0.356914   
     73. B(C  63,C  54)                  1.5347         0.367231   
     74. B(H  64,C  63)                  1.0912         0.358503   
     75. B(H  65,C  63)                  1.0928         0.356406   
     76. B(H  66,C  63)                  1.0889         0.361599   
     77. B(C  67,C   9)                  1.5385         0.362042   
     78. B(C  68,C  67)                  1.5343         0.367748   
     79. B(H  69,C  68)                  1.0900         0.360146   
     80. B(H  70,C  68)                  1.0927         0.356522   
     81. B(H  71,C  68)                  1.0925         0.356848   
     82. B(C  72,C  67)                  1.5346         0.367282   
     83. B(H  73,C  72)                  1.0927         0.356481   
     84. B(H  74,C  72)                  1.0938         0.355152   
     85. B(H  75,C  72)                  1.0875         0.363457   
     86. B(C  76,C  67)                  1.5294         0.374461   
     87. B(H  77,C  76)                  1.0872         0.363839   
     88. B(H  78,C  76)                  1.0944         0.354379   
     89. B(H  79,C  76)                  1.0907         0.359212   
     90. B(C  80,C  12)                  1.5185         0.389741   
     91. B(C  81,C  80)                  1.5287         0.375421   
     92. B(H  82,C  81)                  1.0920         0.357516   
     93. B(H  83,H  82)                  1.9925         0.002504   
     94. B(H  83,C  81)                  1.4884         0.083334   
     95. B(H  84,H  83)                  1.8045         0.004995   
     96. B(H  84,C  81)                  0.9534         0.594695   
     97. B(C  85,C  80)                  1.5205         0.386778   
     98. B(H  86,C  85)                  0.9599         0.580801   
     99. B(H  87,C  85)                  1.0935         0.355457   
    100. B(H  88,C  85)                  1.3859         0.121446   
    101. B(C  89,C  80)                  1.5382         0.362534   
    102. B(H  90,C  89)                  1.1836         0.255346   
    103. B(H  91,C  89)                  1.0213         0.463530   
    104. B(H  92,C  89)                  1.0943         0.354438   
    105. A(C   6,Mn  0,C  13)          162.6290         0.457659   
    106. A(C   2,Mn  0,C   5)           64.9171         0.441283   
    107. A(C   2,Mn  0,C  13)          114.3946         0.434968   
    108. A(C   2,Mn  0,C  10)          157.4117         0.448546   
    109. A(C   8,Mn  0,C  12)           64.0227         0.428962   
    110. A(C   9,Mn  0,C  13)           62.9725         0.434935   
    111. A(C   6,Mn  0,C   8)          129.7780         0.421557   
    112. A(C   1,Mn  0,C   6)           37.1788         0.420280   
    113. A(C   2,Mn  0,C   6)           62.8091         0.432335   
    114. A(C   8,Mn  0,C  13)           37.3255         0.424107   
    115. A(C   2,Mn  0,C   3)           38.4735         0.451416   
    116. A(C   3,Mn  0,C   8)          161.3820         0.440039   
    117. A(C   8,Mn  0,C   9)           37.2111         0.401057   
    118. A(C   9,Mn  0,C  10)           38.3388         0.448512   
    119. A(C  12,Mn  0,C  13)           38.5570         0.465869   
    120. A(C  10,Mn  0,C  13)           63.7440         0.475067   
    121. A(C   2,Mn  0,C  12)          124.4998         0.439980   
    122. A(C   2,Mn  0,C   9)          163.4473         0.411171   
    123. A(C   8,Mn  0,C  10)           63.1648         0.437260   
    124. A(C   6,Mn  0,C  12)          158.1737         0.463000   
    125. A(C   5,Mn  0,C   8)          159.3152         0.430224   
    126. A(C   1,Mn  0,C  10)          161.2414         0.435923   
    127. A(C   1,Mn  0,C   2)           37.1736         0.399889   
    128. A(C   5,Mn  0,C  10)          107.9487         0.482113   
    129. A(C   1,Mn  0,C   5)           63.9630         0.428914   
    130. A(C   5,Mn  0,C  13)          158.3154         0.467267   
    131. A(C   1,Mn  0,C   9)          130.3661         0.399859   
    132. A(C   3,Mn  0,C  13)          125.9621         0.478148   
    133. A(C   5,Mn  0,C   6)           38.4345         0.464388   
    134. A(C  10,Mn  0,C  12)           39.0813         0.480660   
    135. A(C   1,Mn  0,C  13)          129.8782         0.422821   
    136. A(C   6,Mn  0,C  10)          126.0241         0.472128   
    137. A(C   5,Mn  0,C   9)          124.1520         0.441249   
    138. A(C   3,Mn  0,C  10)          122.2786         0.493421   
    139. A(C   3,Mn  0,C   9)          157.2024         0.451381   
    140. A(C   6,Mn  0,C   9)          114.2934         0.432302   
    141. A(C   1,Mn  0,C  12)          159.6763         0.427657   
    142. A(C   1,Mn  0,C   3)           63.3134         0.438691   
    143. A(C   3,Mn  0,C  12)          107.9274         0.483786   
    144. A(C   1,Mn  0,C   8)          118.0263         0.390130   
    145. A(C   9,Mn  0,C  12)           64.8296         0.439946   
    146. A(C   3,Mn  0,C   5)           39.3022         0.485250   
    147. A(C   3,Mn  0,C   6)           63.8046         0.475186   
    148. A(C   2,Mn  0,C   8)          130.4751         0.401088   
    149. A(C   5,Mn  0,C  12)          122.1313         0.472747   
    150. A(C   2,C   1,C  15)          134.0673         0.383318   
    151. A(Mn  0,C   1,C   6)           66.8393         0.403400   
    152. A(Mn  0,C   1,C   2)           69.7919         0.398158   
    153. A(C   6,C   1,C  15)          118.1108         0.388308   
    154. A(Mn  0,C   1,C  15)          137.0921         0.374575   
    155. A(C   2,C   1,C   6)          106.5298         0.413026   
    156. A(Mn  0,C   2,C   1)           73.0345         0.409408   
    157. A(C   1,C   2,C   3)          106.4296         0.409388   
    158. A(C   1,C   2,C  28)          132.2473         0.382393   
    159. A(Mn  0,C   2,C  28)          132.4312         0.384036   
    160. A(C   3,C   2,C  28)          120.6580         0.384018   
    161. A(Mn  0,C   2,C   3)           65.4171         0.411183   
    162. A(C   2,C   3,C   5)          110.4664         0.414511   
    163. A(Mn  0,C   3,C   5)           71.6441         0.455160   
    164. A(C   2,C   3,H   4)          124.5816         0.346519   
    165. A(Mn  0,C   3,H   4)          123.7503         0.378677   
    166. A(Mn  0,C   3,C   2)           76.1094         0.451394   
    167. A(H   4,C   3,C   5)          124.6921         0.349195   
    168. A(Mn  0,C   5,C   6)           71.9683         0.447540   
    169. A(C   3,C   5,C   6)          105.1197         0.420313   
    170. A(C   6,C   5,C  41)          125.5082         0.394849   
    171. A(C   3,C   5,C  41)          126.7012         0.392615   
    172. A(Mn  0,C   5,C  41)          137.5197         0.417566   
    173. A(Mn  0,C   5,C   3)           69.0537         0.444922   
    174. A(C   1,C   6,H   7)          124.0929         0.349659   
    175. A(Mn  0,C   6,H   7)          124.6227         0.363654   
    176. A(C   5,C   6,H   7)          124.4650         0.351327   
    177. A(Mn  0,C   6,C   5)           69.5972         0.438433   
    178. A(C   1,C   6,C   5)          111.3327         0.420628   
    179. A(Mn  0,C   6,C   1)           75.9819         0.436211   
    180. A(Mn  0,C   8,C   9)           69.9520         0.399390   
    181. A(C   9,C   8,C  54)          133.8230         0.383613   
    182. A(Mn  0,C   8,C  54)          137.3928         0.375925   
    183. A(C   9,C   8,C  13)          106.5253         0.412716   
    184. A(Mn  0,C   8,C  13)           66.5973         0.404269   
    185. A(C  13,C   8,C  54)          118.2966         0.388243   
    186. A(C   8,C   9,C  67)          132.8908         0.382608   
    187. A(C  10,C   9,C  67)          120.1528         0.384791   
    188. A(C   8,C   9,C  10)          106.3656         0.410078   
    189. A(Mn  0,C   9,C  67)          131.7435         0.384184   
    190. A(Mn  0,C   9,C  10)           65.8318         0.411802   
    191. A(Mn  0,C   9,C   8)           72.8369         0.409419   
    192. A(Mn  0,C  10,H  11)          123.7961         0.376742   
    193. A(C   9,C  10,H  11)          124.4829         0.347360   
    194. A(Mn  0,C  10,C   9)           75.8294         0.449251   
    195. A(H  11,C  10,C  12)          124.5524         0.350188   
    196. A(C   9,C  10,C  12)          110.7509         0.416006   
    197. A(Mn  0,C  10,C  12)           71.5638         0.453194   
    198. A(C  10,C  12,C  80)          126.8210         0.393060   
    199. A(C  13,C  12,C  80)          125.0392         0.393863   
    200. A(Mn  0,C  12,C  80)          138.9193         0.415992   
    201. A(C  10,C  12,C  13)          105.0115         0.420458   
    202. A(Mn  0,C  12,C  13)           71.3829         0.445456   
    203. A(Mn  0,C  12,C  10)           69.3549         0.444517   
    204. A(C  12,C  13,H  14)          124.5048         0.350544   
    205. A(C   8,C  13,H  14)          124.0823         0.349151   
    206. A(Mn  0,C  13,H  14)          125.1330         0.365521   
    207. A(C   8,C  13,C  12)          111.2079         0.419564   
    208. A(Mn  0,C  13,C  12)           70.0602         0.440365   
    209. A(Mn  0,C  13,C   8)           76.0772         0.438494   
    210. A(C  20,C  15,C  24)          109.4432         0.361985   
    211. A(C  16,C  15,C  24)          105.8225         0.360093   
    212. A(C   1,C  15,C  24)          107.7062         0.359957   
    213. A(C  16,C  15,C  20)          106.4096         0.363039   
    214. A(C   1,C  15,C  20)          116.2770         0.362902   
    215. A(C   1,C  15,C  16)          110.7043         0.361004   
    216. A(H  18,C  16,H  19)          108.3367         0.290595   
    217. A(H  17,C  16,H  19)          108.0497         0.290850   
    218. A(C  15,C  16,H  19)          111.8442         0.323619   
    219. A(C  15,C  16,H  18)          109.2707         0.322834   
    220. A(C  15,C  16,H  17)          112.1682         0.323130   
    221. A(H  17,C  16,H  18)          106.9863         0.290174   
    222. A(H  22,C  20,H  23)          107.1428         0.290802   
    223. A(H  21,C  20,H  23)          108.1812         0.291334   
    224. A(C  15,C  20,H  23)          113.3625         0.325640   
    225. A(H  21,C  20,H  22)          107.5158         0.290211   
    226. A(C  15,C  20,H  22)          109.1786         0.324327   
    227. A(C  15,C  20,H  21)          111.2214         0.324947   
    228. A(H  26,C  24,H  27)          108.0169         0.289696   
    229. A(H  25,C  24,H  27)          107.7952         0.290722   
    230. A(C  15,C  24,H  27)          110.3144         0.321980   
    231. A(H  25,C  24,H  26)          108.0291         0.290419   
    232. A(C  15,C  24,H  26)          109.6911         0.321629   
    233. A(C  15,C  24,H  25)          112.8459         0.322819   
    234. A(C   2,C  28,C  33)          111.1129         0.360224   
    235. A(C   2,C  28,C  29)          113.6788         0.361393   
    236. A(C  29,C  28,C  33)          109.7247         0.362465   
    237. A(C  33,C  28,C  37)          104.8312         0.361524   
    238. A(C  29,C  28,C  37)          106.6189         0.362698   
    239. A(C   2,C  28,C  37)          110.4118         0.360455   
    240. A(H  30,C  29,H  32)          107.8422         0.291128   
    241. A(C  28,C  29,H  32)          110.3735         0.324246   
    242. A(H  30,C  29,H  31)          107.8709         0.290562   
    243. A(C  28,C  29,H  31)          109.8595         0.323587   
    244. A(C  28,C  29,H  30)          112.6781         0.324980   
    245. A(H  31,C  29,H  32)          108.0703         0.289936   
    246. A(C  28,C  33,H  34)          110.8521         0.322883   
    247. A(H  35,C  33,H  36)          107.2118         0.290726   
    248. A(H  34,C  33,H  36)          108.1916         0.290866   
    249. A(C  28,C  33,H  36)          113.3066         0.324017   
    250. A(H  34,C  33,H  35)          107.8190         0.289752   
    251. A(C  28,C  33,H  35)          109.2566         0.322720   
    252. A(H  39,C  37,H  40)          107.6963         0.289930   
    253. A(H  38,C  37,H  40)          108.7177         0.290715   
    254. A(C  28,C  37,H  40)          111.7467         0.323130   
    255. A(H  38,C  37,H  39)          107.3422         0.290672   
    256. A(C  28,C  37,H  39)          108.9318         0.323080   
    257. A(C  28,C  37,H  38)          112.2128         0.323994   
    258. A(C  46,C  41,C  50)          109.2446         0.365650   
    259. A(C  42,C  41,C  50)          108.3035         0.363155   
    260. A(C   5,C  41,C  50)          112.8199         0.367727   
    261. A(C  42,C  41,C  46)          108.0203         0.362627   
    262. A(C   5,C  41,C  46)          111.6064         0.367191   
    263. A(C   5,C  41,C  42)          106.6555         0.364681   
    264. A(H  44,C  42,H  45)          108.1918         0.289708   
    265. A(H  43,C  42,H  45)          107.8948         0.289970   
    266. A(C  41,C  42,H  45)          111.0388         0.322475   
    267. A(H  43,C  42,H  44)          108.2560         0.289651   
    268. A(C  41,C  42,H  44)          110.4667         0.322103   
    269. A(C  41,C  42,H  43)          110.8842         0.322408   
    270. A(H  48,C  46,H  49)          107.4378         0.289879   
    271. A(H  47,C  46,H  49)          108.0600         0.290321   
    272. A(C  41,C  46,H  49)          111.6049         0.324584   
    273. A(H  47,C  46,H  48)          107.9675         0.290200   
    274. A(C  41,C  46,H  48)          109.9935         0.324442   
    275. A(C  41,C  46,H  47)          111.6124         0.324960   
    276. A(H  52,C  50,H  53)          108.1947         0.290154   
    277. A(H  51,C  50,H  53)          108.2183         0.290431   
    278. A(C  41,C  50,H  53)          111.3963         0.325485   
    279. A(H  51,C  50,H  52)          107.4321         0.289824   
    280. A(C  41,C  50,H  52)          110.1347         0.324772   
    281. A(C  41,C  50,H  51)          111.3225         0.325097   
    282. A(C  59,C  54,C  63)          106.0092         0.360162   
    283. A(C  55,C  54,C  63)          106.6051         0.363152   
    284. A(C   8,C  54,C  63)          110.6944         0.361286   
    285. A(C  55,C  54,C  59)          109.2507         0.362074   
    286. A(C   8,C  54,C  59)          107.4972         0.360215   
    287. A(C   8,C  54,C  55)          116.3226         0.363206   
    288. A(H  57,C  55,H  58)          107.1147         0.290761   
    289. A(H  56,C  55,H  58)          108.2168         0.291306   
    290. A(C  54,C  55,H  58)          113.2369         0.325654   
    291. A(H  56,C  55,H  57)          107.5054         0.290215   
    292. A(C  54,C  55,H  57)          109.1621         0.324378   
    293. A(C  54,C  55,H  56)          111.3651         0.325013   
    294. A(H  61,C  59,H  62)          108.0710         0.289708   
    295. A(H  60,C  59,H  62)          107.8153         0.290680   
    296. A(C  54,C  59,H  62)          110.3674         0.322017   
    297. A(H  60,C  59,H  61)          108.0410         0.290358   
    298. A(C  54,C  59,H  61)          109.7394         0.321645   
    299. A(C  54,C  59,H  60)          112.6662         0.322771   
    300. A(H  65,C  63,H  66)          108.3509         0.290558   
    301. A(H  64,C  63,H  66)          108.0235         0.290826   
    302. A(C  54,C  63,H  66)          111.8341         0.323629   
    303. A(H  64,C  63,H  65)          107.0100         0.290167   
    304. A(C  54,C  63,H  65)          109.3255         0.322862   
    305. A(C  54,C  63,H  64)          112.1146         0.323173   
    306. A(C  72,C  67,C  76)          109.6672         0.362445   
    307. A(C  68,C  67,C  76)          106.6298         0.362524   
    308. A(C   9,C  67,C  76)          113.8375         0.361557   
    309. A(C  68,C  67,C  72)          104.9892         0.361328   
    310. A(C   9,C  67,C  72)          111.0439         0.360366   
    311. A(C   9,C  67,C  68)          110.2126         0.360444   
    312. A(H  70,C  68,H  71)          107.7428         0.289971   
    313. A(H  69,C  68,H  71)          108.3279         0.290431   
    314. A(C  67,C  68,H  71)          111.6798         0.323002   
    315. A(H  69,C  68,H  70)          107.4833         0.290390   
    316. A(C  67,C  68,H  70)          109.0220         0.322954   
    317. A(C  67,C  68,H  69)          112.3963         0.323490   
    318. A(H  74,C  72,H  75)          107.2311         0.290631   
    319. A(H  73,C  72,H  75)          108.1738         0.290802   
    320. A(C  67,C  72,H  75)          113.1527         0.323909   
    321. A(H  73,C  72,H  74)          107.8562         0.289749   
    322. A(C  67,C  72,H  74)          109.3532         0.322683   
    323. A(C  67,C  72,H  73)          110.8780         0.322880   
    324. A(H  78,C  76,H  79)          108.0491         0.289997   
    325. A(H  77,C  76,H  79)          107.8296         0.291199   
    326. A(C  67,C  76,H  79)          110.5018         0.324313   
    327. A(H  77,C  76,H  78)          107.8474         0.290580   
    328. A(C  67,C  76,H  78)          109.8303         0.323593   
    329. A(C  67,C  76,H  77)          112.6337         0.324996   
    330. A(C  85,C  80,C  89)          108.7537         0.363646   
    331. A(C  81,C  80,C  89)          107.4842         0.361799   
    332. A(C  12,C  80,C  89)          106.2976         0.364120   
    333. A(C  81,C  80,C  85)          109.0930         0.365826   
    334. A(C  12,C  80,C  85)          112.4933         0.368181   
    335. A(C  12,C  80,C  81)          112.5042         0.366304   
    336. A(H  83,C  81,H  84)           92.6639         0.251352   
    337. A(H  82,C  81,H  83)           99.9645         0.233690   
    338. A(C  80,C  81,H  83)          100.9626         0.258153   
    339. A(H  82,C  81,H  84)          110.3651         0.314741   
    340. A(C  80,C  81,H  84)          134.0404         0.352909   
    341. A(C  80,C  81,H  82)          110.0864         0.324198   
    342. A(C  81,H  82,H  83)           47.3680         0.141332   
    343. A(H  82,H  83,H  84)           52.2715         0.104916   
    344. A(C  81,H  83,H  82)           32.6675         0.126637   
    345. A(C  81,H  83,H  84)           31.8566         0.133006   
    346. A(C  81,H  84,H  83)           55.4796         0.157657   
    347. A(H  87,C  85,H  88)          103.4947         0.246358   
    348. A(H  86,C  85,H  88)          111.2304         0.264855   
    349. A(C  80,C  85,H  88)           98.3954         0.274451   
    350. A(H  86,C  85,H  87)          110.4936         0.313243   
    351. A(C  80,C  85,H  87)          109.9100         0.325480   
    352. A(C  80,C  85,H  86)          121.3515         0.353277   
    353. A(H  91,C  89,H  92)          110.1140         0.301945   
    354. A(H  90,C  89,H  92)          106.6815         0.275062   
    355. A(C  80,C  89,H  92)          110.3980         0.321889   
    356. A(H  90,C  89,H  91)          105.0076         0.286712   
    357. A(C  80,C  89,H  91)          117.6749         0.336472   
    358. A(C  80,C  89,H  90)          106.2010         0.305230   
    359. D(C   2,C   1,Mn  0,C   9)    163.9760         0.001859   
    360. D(C   2,C   1,Mn  0,C  12)     30.5131         0.001859   
    361. D(C   6,C   1,Mn  0,C   8)   -119.8412         0.001859   
    362. D(C   6,C   1,Mn  0,C   3)     81.0924         0.001859   
    363. D(C   2,C   1,Mn  0,C   8)    121.0009         0.001859   
    364. D(C   2,C   1,Mn  0,C  13)     77.8161         0.001859   
    365. D(C   2,C   1,Mn  0,C   6)   -119.1578         0.001859   
    366. D(C   6,C   1,Mn  0,C   2)    119.1578         0.001859   
    367. D(C   6,C   1,Mn  0,C   5)     37.0097         0.001859   
    368. D(C   2,C   1,Mn  0,C   5)    -82.1481         0.001859   
    369. D(C   2,C   1,Mn  0,C  10)   -150.3127         0.001859   
    370. D(C   2,C   1,Mn  0,C   3)    -38.0654         0.001859   
    371. D(C   3,C   2,C   1,Mn  0)     57.0838         0.021449   
    372. D(C   1,C   2,Mn  0,C   3)    117.6936         0.001988   
    373. D(C   3,C   2,Mn  0,C   8)    158.2188         0.001988   
    374. D(C  28,C   2,C   1,Mn  0)   -132.5198         0.021449   
    375. D(C   1,C   2,Mn  0,C  10)    155.5029         0.001988   
    376. D(Mn  0,C   2,C   1,C   6)    -56.8783         0.021449   
    377. D(C   3,C   2,Mn  0,C   6)    -81.3025         0.001988   
    378. D(C   3,C   2,Mn  0,C   5)    -38.3463         0.001988   
    379. D(C   1,C   2,Mn  0,C   9)    -47.5813         0.001988   
    380. D(C   3,C   2,Mn  0,C   1)   -117.6936         0.001988   
    381. D(C   1,C   2,Mn  0,C   8)    -84.0876         0.001988   
    382. D(C   3,C   2,C   1,C   6)      0.2055         0.021449   
    383. D(C   1,C   2,Mn  0,C  13)   -124.5475         0.001988   
    384. D(C   1,C   2,Mn  0,C   5)     79.3473         0.001988   
    385. D(C   3,C   2,C   1,C  15)   -166.0340         0.021449   
    386. D(Mn  0,C   2,C   1,C  15)    136.8822         0.021449   
    387. D(C   1,C   2,Mn  0,C   6)     36.3911         0.001988   
    388. D(C   1,C   2,Mn  0,C  12)   -167.6442         0.001988   
    389. D(C   2,C   3,Mn  0,C   5)    117.4876         0.002858   
    390. D(C   5,C   3,C   2,Mn  0)     63.9880         0.022562   
    391. D(H   4,C   3,C   2,C  28)      4.6078         0.022562   
    392. D(H   4,C   3,C   2,C   1)    176.3537         0.022562   
    393. D(Mn  0,C   3,C   2,C  28)    126.2519         0.022562   
    394. D(C   2,C   3,Mn  0,C  12)   -123.3494         0.002858   
    395. D(H   4,C   3,Mn  0,C   5)   -119.9686         0.002858   
    396. D(Mn  0,C   3,C   2,C   1)    -62.0021         0.022562   
    397. D(H   4,C   3,Mn  0,C   2)    122.5439         0.002858   
    398. D(H   4,C   3,C   2,Mn  0)   -121.6442         0.022562   
    399. D(H   4,C   3,Mn  0,C   6)   -158.9627         0.002858   
    400. D(C   2,C   3,Mn  0,C  10)   -163.8286         0.002858   
    401. D(C   2,C   3,Mn  0,C  13)    -84.6746         0.002858   
    402. D(C   2,C   3,Mn  0,C   9)    169.2287         0.002858   
    403. D(C   2,C   3,Mn  0,C   6)     78.4934         0.002858   
    404. D(H   4,C   3,Mn  0,C   1)    159.3279         0.002858   
    405. D(C   2,C   3,Mn  0,C   8)    -62.1442         0.002858   
    406. D(C   2,C   3,Mn  0,C   1)     36.7841         0.002858   
    407. D(Mn  0,C   5,C   3,H   4)    118.8318         0.024819   
    408. D(Mn  0,C   5,C   3,C   2)    -66.8079         0.024819   
    409. D(C   6,C   5,Mn  0,C   8)     64.9380         0.002559   
    410. D(C   3,C   5,Mn  0,C  12)    -78.8473         0.002559   
    411. D(C   3,C   5,Mn  0,C  13)    -55.7250         0.002559   
    412. D(C   6,C   5,Mn  0,C   2)    -77.1839         0.002559   
    413. D(C   3,C   5,Mn  0,C  10)   -119.3742         0.002559   
    414. D(C   6,C   5,Mn  0,C   3)   -114.7291         0.002559   
    415. D(C   3,C   5,Mn  0,C   9)   -158.4288         0.002559   
    416. D(C   3,C   5,Mn  0,C   8)    179.6671         0.002559   
    417. D(C   6,C   5,Mn  0,C   1)    -35.8160         0.002559   
    418. D(C   3,C   5,Mn  0,C   1)     78.9131         0.002559   
    419. D(C   3,C   5,Mn  0,C   6)    114.7291         0.002559   
    420. D(C   6,C   5,C   3,Mn  0)     63.4642         0.024819   
    421. D(C   3,C   5,Mn  0,C   2)     37.5451         0.002559   
    422. D(C  41,C   5,C   3,Mn  0)   -134.3961         0.024819   
    423. D(C   6,C   5,C   3,H   4)   -177.7040         0.024819   
    424. D(C   6,C   5,C   3,C   2)     -3.3437         0.024819   
    425. D(H   7,C   6,C   5,Mn  0)   -118.6826         0.026569   
    426. D(C   5,C   6,C   1,C   2)     -2.3582         0.025039   
    427. D(C   1,C   6,C   5,C   3)      3.5092         0.026569   
    428. D(H   7,C   6,C   1,Mn  0)    122.5583         0.025039   
    429. D(Mn  0,C   6,C   5,C   3)    -61.4847         0.026569   
    430. D(C   1,C   6,C   5,C  41)   -158.9085         0.026569   
    431. D(C   1,C   6,C   5,Mn  0)     64.9939         0.026569   
    432. D(C   5,C   6,C   1,Mn  0)    -61.1019         0.025039   
    433. D(Mn  0,C   6,C   1,C  15)   -132.4290         0.025039   
    434. D(Mn  0,C   6,C   1,C   2)     58.7437         0.025039   
    435. D(C   5,C   6,Mn  0,C   8)   -155.3962         0.002346   
    436. D(C   5,C   6,Mn  0,C   2)     83.1460         0.002346   
    437. D(C   5,C   6,Mn  0,C   1)    119.5320         0.002346   
    438. D(C   1,C   6,Mn  0,C  13)     48.6244         0.002346   
    439. D(C   1,C   6,Mn  0,C  10)    168.1290         0.002346   
    440. D(C   5,C   6,C   1,C  15)    166.4691         0.025039   
    441. D(C   1,C   6,Mn  0,C  12)   -151.8534         0.002346   
    442. D(Mn  0,C   6,C   5,C  41)    136.0976         0.026569   
    443. D(C   1,C   6,Mn  0,C   9)    125.5037         0.002346   
    444. D(C   1,C   6,Mn  0,C   8)     85.0718         0.002346   
    445. D(C   1,C   6,Mn  0,C   3)    -79.6524         0.002346   
    446. D(C   1,C   6,Mn  0,C   5)   -119.5320         0.002346   
    447. D(C   1,C   6,Mn  0,C   2)    -36.3860         0.002346   
    448. D(C   5,C   6,Mn  0,C   3)     39.8796         0.002346   
    449. D(C  13,C   8,Mn  0,C   5)    149.8967         0.001871   
    450. D(C  13,C   8,Mn  0,C   3)    -30.7638         0.001871   
    451. D(C  13,C   8,Mn  0,C   2)    -77.0756         0.001871   
    452. D(C  13,C   8,Mn  0,C   1)   -119.9866         0.001871   
    453. D(C   9,C   8,Mn  0,C  13)   -119.2001         0.001871   
    454. D(C   9,C   8,Mn  0,C  12)    -81.9139         0.001871   
    455. D(C   9,C   8,Mn  0,C  10)    -38.0682         0.001871   
    456. D(C   9,C   8,Mn  0,C   6)     77.8089         0.001871   
    457. D(C   9,C   8,Mn  0,C   5)     30.6965         0.001871   
    458. D(C   9,C   8,Mn  0,C   3)   -149.9639         0.001871   
    459. D(C   9,C   8,Mn  0,C   2)    163.7243         0.001871   
    460. D(C   9,C   8,Mn  0,C   1)    120.8133         0.001871   
    461. D(C  67,C   9,C   8,Mn  0)   -131.6208         0.021475   
    462. D(C  10,C   9,C   8,C  13)      0.8195         0.021475   
    463. D(C  10,C   9,C   8,Mn  0)     57.5007         0.021475   
    464. D(Mn  0,C   9,C   8,C  54)    137.3677         0.021475   
    465. D(Mn  0,C   9,C   8,C  13)    -56.6812         0.021475   
    466. D(C  10,C   9,Mn  0,C   5)     75.0805         0.001988   
    467. D(C  10,C   9,Mn  0,C   3)     38.1382         0.001988   
    468. D(C  10,C   9,Mn  0,C   2)   -165.9490         0.001988   
    469. D(C  10,C   9,Mn  0,C   1)    158.2164         0.001988   
    470. D(C   8,C   9,Mn  0,C  13)     36.4542         0.001988   
    471. D(C   8,C   9,Mn  0,C  12)     79.5481         0.001988   
    472. D(C   8,C   9,Mn  0,C  10)    117.5049         0.001988   
    473. D(C   8,C   9,Mn  0,C   6)   -124.4947         0.001988   
    474. D(C   8,C   9,Mn  0,C   5)   -167.4146         0.001988   
    475. D(C   8,C   9,Mn  0,C   3)    155.6432         0.001988   
    476. D(C  10,C   9,C   8,C  54)   -165.1317         0.021475   
    477. D(C   8,C   9,Mn  0,C   2)    -48.4440         0.001988   
    478. D(C   8,C   9,Mn  0,C   1)    -84.2787         0.001988   
    479. D(C   9,C  10,Mn  0,C   8)     36.9513         0.002766   
    480. D(C   9,C  10,Mn  0,C   6)    -84.2927         0.002766   
    481. D(C   9,C  10,Mn  0,C   5)   -122.8006         0.002766   
    482. D(C   9,C  10,Mn  0,C   3)   -163.5589         0.002766   
    483. D(C   9,C  10,Mn  0,C   2)    169.6257         0.002766   
    484. D(C   9,C  10,Mn  0,C  12)    117.9930         0.002766   
    485. D(C   9,C  10,Mn  0,C   1)    -61.5520         0.002766   
    486. D(C  12,C  10,C   9,Mn  0)     63.6109         0.022984   
    487. D(H  11,C  10,C   9,C  67)      4.1770         0.022984   
    488. D(H  11,C  10,C   9,C   8)    176.4576         0.022984   
    489. D(H  11,C  10,C   9,Mn  0)   -121.5043         0.022984   
    490. D(Mn  0,C  10,C   9,C  67)    125.6812         0.022984   
    491. D(Mn  0,C  10,C   9,C   8)    -62.0381         0.022984   
    492. D(H  11,C  10,Mn  0,C   5)     -0.5476         0.002766   
    493. D(H  11,C  10,Mn  0,C   3)    -41.3059         0.002766   
    494. D(H  11,C  10,Mn  0,C   2)    -68.1213         0.002766   
    495. D(H  11,C  10,Mn  0,C   1)     60.7009         0.002766   
    496. D(C   9,C  10,Mn  0,C  13)     78.8654         0.002766   
    497. D(C  80,C  12,C  10,Mn  0)   -136.3998         0.025417   
    498. D(C  13,C  12,C  10,C   9)     -3.2967         0.025417   
    499. D(C  13,C  12,C  10,Mn  0)     62.9839         0.025417   
    500. D(Mn  0,C  12,C  10,H  11)    118.8389         0.025417   
    501. D(C  13,C  12,Mn  0,C   5)    166.5383         0.002525   
    502. D(C  13,C  12,Mn  0,C   3)    125.7580         0.002525   
    503. D(C  13,C  12,Mn  0,C   2)     86.6627         0.002525   
    504. D(C  13,C  12,Mn  0,C   1)     64.8077         0.002525   
    505. D(C  10,C  12,Mn  0,C  13)    114.7711         0.002525   
    506. D(C  10,C  12,Mn  0,C   9)     37.2434         0.002525   
    507. D(C  10,C  12,Mn  0,C   8)     78.6622         0.002525   
    508. D(Mn  0,C  12,C  10,C   9)    -66.2806         0.025417   
    509. D(C  10,C  12,Mn  0,C   6)    -55.5820         0.002525   
    510. D(C  10,C  12,Mn  0,C   5)    -78.6906         0.002525   
    511. D(C  10,C  12,Mn  0,C   3)   -119.4709         0.002525   
    512. D(C  13,C  12,C  10,H  11)   -178.1773         0.025417   
    513. D(C  10,C  12,Mn  0,C   2)   -158.5662         0.002525   
    514. D(C  10,C  12,Mn  0,C   1)    179.5788         0.002525   
    515. D(H  14,C  13,C  12,Mn  0)   -119.5697         0.026048   
    516. D(C   8,C  13,C  12,C  80)   -157.2110         0.026048   
    517. D(C   8,C  13,C  12,C  10)      3.8540         0.026048   
    518. D(C   8,C  13,C  12,Mn  0)     65.4603         0.026048   
    519. D(Mn  0,C  13,C  12,C  80)    137.3288         0.026048   
    520. D(H  14,C  13,C   8,Mn  0)    123.2386         0.024788   
    521. D(C  12,C  13,C   8,C  54)    165.5602         0.024788   
    522. D(C  12,C  13,C   8,C   9)     -2.9667         0.024788   
    523. D(C  12,C  13,C   8,Mn  0)    -61.7661         0.024788   
    524. D(Mn  0,C  13,C   8,C  54)   -132.6737         0.024788   
    525. D(Mn  0,C  13,C   8,C   9)     58.7994         0.024788   
    526. D(C  12,C  13,Mn  0,C   5)    -32.2443         0.002404   
    527. D(C  12,C  13,Mn  0,C   3)    -72.5350         0.002404   
    528. D(C  12,C  13,Mn  0,C   2)   -115.3937         0.002404   
    529. D(C  12,C  13,Mn  0,C   1)   -155.8238         0.002404   
    530. D(C   8,C  13,Mn  0,C  12)   -119.1045         0.002404   
    531. D(C   8,C  13,Mn  0,C  10)    -79.4416         0.002404   
    532. D(Mn  0,C  13,C  12,C  10)    -61.6063         0.026048   
    533. D(C   8,C  13,Mn  0,C   9)    -36.3434         0.002404   
    534. D(C   8,C  13,Mn  0,C   6)     48.8504         0.002404   
    535. D(C   8,C  13,Mn  0,C   5)   -151.3488         0.002404   
    536. D(C   8,C  13,Mn  0,C   3)    168.3605         0.002404   
    537. D(C   8,C  13,Mn  0,C   2)    125.5018         0.002404   
    538. D(C   8,C  13,Mn  0,C   1)     85.0717         0.002404   
    539. D(C  20,C  15,C   1,C   6)    151.1035         0.010731   
    540. D(C  20,C  15,C   1,C   2)    -43.8793         0.010731   
    541. D(C  20,C  15,C   1,Mn  0)     65.7071         0.010731   
    542. D(C  16,C  15,C   1,C   6)     29.5417         0.010731   
    543. D(C  16,C  15,C   1,C   2)   -165.4412         0.010731   
    544. D(C  16,C  15,C   1,Mn  0)    -55.8547         0.010731   
    545. D(H  18,C  16,C  15,C  24)    -69.8934         0.010776   
    546. D(H  18,C  16,C  15,C  20)     46.4744         0.010776   
    547. D(H  18,C  16,C  15,C   1)    173.6802         0.010776   
    548. D(H  17,C  16,C  15,C  24)     48.5726         0.010776   
    549. D(H  17,C  16,C  15,C  20)    164.9404         0.010776   
    550. D(H  17,C  16,C  15,C   1)    -67.8538         0.010776   
    551. D(H  22,C  20,C  15,C  24)     57.5151         0.011417   
    552. D(H  22,C  20,C  15,C  16)    -56.4001         0.011417   
    553. D(H  22,C  20,C  15,C   1)    179.7903         0.011417   
    554. D(H  21,C  20,C  15,C  24)    175.9978         0.011417   
    555. D(H  21,C  20,C  15,C  16)     62.0826         0.011417   
    556. D(H  21,C  20,C  15,C   1)    -61.7270         0.011417   
    557. D(H  26,C  24,C  15,C  20)    -57.9448         0.010438   
    558. D(H  26,C  24,C  15,C  16)     56.3495         0.010438   
    559. D(H  26,C  24,C  15,C   1)    174.7882         0.010438   
    560. D(H  25,C  24,C  15,C  20)     62.5514         0.010438   
    561. D(H  25,C  24,C  15,C  16)    176.8457         0.010438   
    562. D(H  25,C  24,C  15,C   1)    -64.7156         0.010438   
    563. D(C  33,C  28,C   2,C   3)    118.1998         0.010456   
    564. D(C  33,C  28,C   2,C   1)    -51.0797         0.010456   
    565. D(C  33,C  28,C   2,Mn  0)   -158.3087         0.010456   
    566. D(C  29,C  28,C   2,C   3)   -117.4415         0.010456   
    567. D(C  29,C  28,C   2,C   1)     73.2791         0.010456   
    568. D(C  29,C  28,C   2,Mn  0)    -33.9499         0.010456   
    569. D(H  31,C  29,C  28,C  37)     59.5053         0.011193   
    570. D(H  31,C  29,C  28,C  33)    -53.4987         0.011193   
    571. D(H  31,C  29,C  28,C   2)   -178.6029         0.011193   
    572. D(H  30,C  29,C  28,C  37)    179.8065         0.011193   
    573. D(H  30,C  29,C  28,C  33)     66.8025         0.011193   
    574. D(H  30,C  29,C  28,C   2)    -58.3017         0.011193   
    575. D(H  35,C  33,C  28,C  37)    -51.5904         0.010800   
    576. D(H  35,C  33,C  28,C  29)     62.5668         0.010800   
    577. D(H  35,C  33,C  28,C   2)   -170.8647         0.010800   
    578. D(H  34,C  33,C  28,C  37)     67.0906         0.010800   
    579. D(H  34,C  33,C  28,C  29)   -178.7522         0.010800   
    580. D(H  34,C  33,C  28,C   2)    -52.1837         0.010800   
    581. D(H  39,C  37,C  28,C  33)     59.0434         0.010877   
    582. D(H  39,C  37,C  28,C  29)    -57.2767         0.010877   
    583. D(H  39,C  37,C  28,C   2)    178.7873         0.010877   
    584. D(H  38,C  37,C  28,C  33)    177.7582         0.010877   
    585. D(H  38,C  37,C  28,C  29)     61.4381         0.010877   
    586. D(H  38,C  37,C  28,C   2)    -62.4979         0.010877   
    587. D(C  46,C  41,C   5,C   6)    -27.7637         0.012190   
    588. D(C  46,C  41,C   5,C   3)    173.5652         0.012190   
    589. D(C  46,C  41,C   5,Mn  0)     74.7183         0.012190   
    590. D(C  42,C  41,C   5,C   6)     89.9978         0.012190   
    591. D(C  42,C  41,C   5,C   3)    -68.6733         0.012190   
    592. D(C  42,C  41,C   5,Mn  0)   -167.5202         0.012190   
    593. D(H  44,C  42,C  41,C  50)     60.6454         0.010616   
    594. D(H  44,C  42,C  41,C  46)    -57.5631         0.010616   
    595. D(H  44,C  42,C  41,C   5)   -177.6626         0.010616   
    596. D(H  43,C  42,C  41,C  50)   -179.3358         0.010616   
    597. D(H  43,C  42,C  41,C  46)     62.4556         0.010616   
    598. D(H  43,C  42,C  41,C   5)    -57.6438         0.010616   
    599. D(H  48,C  46,C  41,C  50)    -53.6381         0.011446   
    600. D(H  48,C  46,C  41,C  42)     63.9664         0.011446   
    601. D(H  48,C  46,C  41,C   5)   -179.0960         0.011446   
    602. D(H  47,C  46,C  41,C  50)     66.1789         0.011446   
    603. D(H  47,C  46,C  41,C  42)   -176.2166         0.011446   
    604. D(H  47,C  46,C  41,C   5)    -59.2789         0.011446   
    605. D(H  52,C  50,C  41,C  46)     60.0231         0.011632   
    606. D(H  52,C  50,C  41,C  42)    -57.4031         0.011632   
    607. D(H  52,C  50,C  41,C   5)   -175.2241         0.011632   
    608. D(H  51,C  50,C  41,C  46)    179.0770         0.011632   
    609. D(H  51,C  50,C  41,C  42)     61.6508         0.011632   
    610. D(H  51,C  50,C  41,C   5)    -56.1702         0.011632   
    611. D(C  55,C  54,C   8,C  13)    151.2236         0.010808   
    612. D(C  55,C  54,C   8,C   9)    -44.1021         0.010808   
    613. D(C  55,C  54,C   8,Mn  0)     65.8709         0.010808   
    614. D(C  59,C  54,C   8,C  13)    -85.9806         0.010808   
    615. D(C  59,C  54,C   8,C   9)     78.6937         0.010808   
    616. D(C  59,C  54,C   8,Mn  0)   -171.3333         0.010808   
    617. D(H  57,C  55,C  54,C  63)    -56.2536         0.011440   
    618. D(H  57,C  55,C  54,C  59)     57.8873         0.011440   
    619. D(H  57,C  55,C  54,C   8)    179.7630         0.011440   
    620. D(H  56,C  55,C  54,C  63)     62.2932         0.011440   
    621. D(H  56,C  55,C  54,C  59)    176.4341         0.011440   
    622. D(H  56,C  55,C  54,C   8)    -61.6902         0.011440   
    623. D(H  61,C  59,C  54,C  63)     56.3049         0.010445   
    624. D(H  61,C  59,C  54,C  55)    -58.2215         0.010445   
    625. D(H  61,C  59,C  54,C   8)    174.7246         0.010445   
    626. D(H  60,C  59,C  54,C  63)    176.7308         0.010445   
    627. D(H  60,C  59,C  54,C  55)     62.2043         0.010445   
    628. D(H  60,C  59,C  54,C   8)    -64.8495         0.010445   
    629. D(H  65,C  63,C  54,C  59)    -70.3109         0.010791   
    630. D(H  65,C  63,C  54,C  55)     46.0161         0.010791   
    631. D(H  65,C  63,C  54,C   8)    173.4097         0.010791   
    632. D(H  64,C  63,C  54,C  59)     48.1872         0.010791   
    633. D(H  64,C  63,C  54,C  55)    164.5142         0.010791   
    634. D(H  64,C  63,C  54,C   8)    -68.0922         0.010791   
    635. D(C  72,C  67,C   9,C  10)    117.1809         0.010508   
    636. D(C  72,C  67,C   9,C   8)    -52.6877         0.010508   
    637. D(C  72,C  67,C   9,Mn  0)   -159.4931         0.010508   
    638. D(C  68,C  67,C   9,C  10)      1.2709         0.010508   
    639. D(C  68,C  67,C   9,C   8)   -168.5977         0.010508   
    640. D(C  68,C  67,C   9,Mn  0)     84.5969         0.010508   
    641. D(H  70,C  68,C  67,C  76)    -55.0504         0.010819   
    642. D(H  70,C  68,C  67,C  72)     61.2828         0.010819   
    643. D(H  70,C  68,C  67,C   9)   -179.0669         0.010819   
    644. D(H  69,C  68,C  67,C  76)     64.0132         0.010819   
    645. D(H  69,C  68,C  67,C  72)   -179.6536         0.010819   
    646. D(H  69,C  68,C  67,C   9)    -60.0033         0.010819   
    647. D(H  74,C  72,C  67,C  76)     62.8999         0.010794   
    648. D(H  74,C  72,C  67,C  68)    -51.3247         0.010794   
    649. D(H  74,C  72,C  67,C   9)   -170.4190         0.010794   
    650. D(H  73,C  72,C  67,C  76)   -178.2969         0.010794   
    651. D(H  73,C  72,C  67,C  68)     67.4784         0.010794   
    652. D(H  73,C  72,C  67,C   9)    -51.6158         0.010794   
    653. D(H  78,C  76,C  67,C  72)    -53.1519         0.011194   
    654. D(H  78,C  76,C  67,C  68)     60.0142         0.011194   
    655. D(H  78,C  76,C  67,C   9)   -178.2380         0.011194   
    656. D(H  77,C  76,C  67,C  72)     67.0699         0.011194   
    657. D(H  77,C  76,C  67,C  68)   -179.7640         0.011194   
    658. D(H  77,C  76,C  67,C   9)    -58.0162         0.011194   
    659. D(C  85,C  80,C  12,C  13)   -173.4913         0.012077   
    660. D(C  85,C  80,C  12,C  10)     29.5582         0.012077   
    661. D(C  85,C  80,C  12,Mn  0)    -71.3092         0.012077   
    662. D(C  81,C  80,C  12,C  13)    -49.7965         0.012077   
    663. D(C  81,C  80,C  12,C  10)    153.2530         0.012077   
    664. D(C  81,C  80,C  12,Mn  0)     52.3855         0.012077   
    665. D(H  84,C  81,C  80,C  89)   -153.8291         0.011248   
    666. D(H  84,C  81,C  80,C  85)     88.4134         0.011248   
    667. D(H  84,C  81,C  80,C  12)    -37.1513         0.011248   
    668. D(H  82,C  81,C  80,C  89)     55.8177         0.011248   
    669. D(H  82,C  81,C  80,C  85)    -61.9398         0.011248   
    670. D(H  82,C  81,C  80,C  12)    172.4955         0.011248   
    671. D(H  83,H  82,C  81,H  84)     96.6354         0.119360   
    672. D(H  83,H  82,C  81,C  80)   -105.6542         0.119360   
    673. D(H  84,H  83,H  82,C  81)    -38.4688         0.001556   
    674. D(H  82,H  83,C  81,H  84)   -111.2161         0.005908   
    675. D(H  82,H  83,C  81,C  80)    112.9053         0.005908   
    676. D(H  84,H  83,C  81,H  82)    111.2161         0.005908   
    677. D(H  84,H  83,C  81,C  80)   -135.8785         0.005908   
    678. D(C  81,H  84,H  83,H  82)     39.5086         0.001729   
    679. D(H  83,H  84,C  81,H  82)   -101.6566         0.429075   
    680. D(H  83,H  84,C  81,C  80)    108.0487         0.429075   
    681. D(H  87,C  85,C  80,C  89)    -58.7929         0.011902   
    682. D(H  87,C  85,C  80,C  81)     58.1617         0.011902   
    683. D(H  87,C  85,C  80,C  12)   -176.2673         0.011902   
    684. D(H  86,C  85,C  80,C  89)     72.2547         0.011902   
    685. D(H  86,C  85,C  80,C  81)   -170.7907         0.011902   
    686. D(H  86,C  85,C  80,C  12)    -45.2197         0.011902   
    687. D(H  91,C  89,C  80,C  85)   -175.9001         0.010534   
    688. D(H  91,C  89,C  80,C  81)     66.1224         0.010534   
    689. D(H  91,C  89,C  80,C  12)    -54.5539         0.010534   
    690. D(H  90,C  89,C  80,C  85)    -58.7149         0.010534   
    691. D(H  90,C  89,C  80,C  81)   -176.6924         0.010534   
    692. D(H  90,C  89,C  80,C  12)     62.6313         0.010534   
    -----------------------------------------------------------------

Number of atoms                         .... 93
Number of degrees of freedom            .... 692


         *************************************************************
         *                GEOMETRY OPTIMIZATION CYCLE   1            *
         *************************************************************
---------------------------------
CARTESIAN COORDINATES (ANGSTROEM)
---------------------------------
  Mn     4.604252    4.374511    2.008925
  C      6.384800    4.864814    3.345169
  C      6.083185    3.458424    3.414525
  C      6.150844    2.962556    2.071334
  H      6.028796    1.927790    1.794143
  C      6.528161    4.000318    1.177010
  C      6.615714    5.161396    1.976006
  H      6.885411    6.136654    1.606609
  C      2.633712    5.433294    2.422661
  C      3.075201    5.718260    1.082087
  C      3.217992    4.453933    0.427287
  H      3.483744    4.330605   -0.608769
  C      2.848776    3.394589    1.294380
  C      2.547331    4.018687    2.527678
  H      2.211055    3.497702    3.409749
  C      6.748343    5.931744    4.387841
  C      6.613502    7.340137    3.792811
  H      7.361301    7.534942    3.022345
  H      6.767026    8.080980    4.581276
  H      5.629388    7.503101    3.356621
  C      5.926991    5.926751    5.674528
  H      4.872737    6.115574    5.470494
  H      6.283250    6.725185    6.331210
  H      6.003355    4.996358    6.230940
  C      8.239474    5.762066    4.731071
  H      8.455992    4.812212    5.215885
  H      8.556921    6.565387    5.402967
  H      8.846360    5.820191    3.824487
  C      5.926429    2.490921    4.601401
  C      4.630895    2.690222    5.389318
  H      4.534052    3.696639    5.789186
  H      4.595413    1.990092    6.229699
  H      3.765853    2.498813    4.752631
  C      7.128886    2.580987    5.550494
  H      8.066860    2.462900    5.002282
  H      7.068070    1.774974    6.287212
  H      7.173110    3.517256    6.100982
  C      5.921978    1.038208    4.110232
  H      5.082463    0.829737    3.450052
  H      5.831514    0.372716    4.972345
  H      6.848575    0.783891    3.590148
  C      7.137295    3.831767   -0.202220
  C      8.552619    3.269975    0.006917
  H      9.145585    3.933971    0.640666
  H      9.067239    3.162258   -0.952843
  H      8.518341    2.289516    0.487453
  C      7.262364    5.168192   -0.928465
  H      6.292521    5.652210   -1.048922
  H      7.688450    5.014478   -1.923438
  H      7.920413    5.856788   -0.393323
  C      6.359413    2.855855   -1.076596
  H      6.263687    1.880355   -0.594780
  H      6.880934    2.702719   -2.025858
  H      5.358138    3.228124   -1.294470
  C      2.022643    6.284547    3.543565
  C      2.667467    7.646179    3.787453
  H      3.711411    7.543765    4.084645
  H      2.141613    8.151591    4.602158
  H      2.623299    8.302745    2.922294
  C      0.531476    6.480615    3.215327
  H      0.374508    7.058417    2.306256
  H      0.037396    7.004427    4.039391
  H      0.040358    5.513476    3.085624
  C      2.066385    5.532747    4.880753
  H      1.399282    4.669236    4.888550
  H      1.735992    6.199206    5.681314
  H      3.070724    5.184723    5.117010
  C      3.210663    7.023883    0.279533
  C      3.465712    6.712067   -1.200918
  H      4.378463    6.135991   -1.352726
  H      3.575190    7.651071   -1.748931
  H      2.633923    6.161563   -1.646521
  C      1.898923    7.820186    0.297172
  H      1.057281    7.190905   -0.002405
  H      1.968131    8.648476   -0.413792
  H      1.672175    8.249127    1.270412
  C      4.361718    7.917781    0.743155
  H      4.279121    8.196635    1.790721
  H      4.378547    8.838189    0.151388
  H      5.317785    7.410896    0.606884
  C      2.399955    2.001603    0.889541
  C      2.699429    0.955323    1.963043
  H      2.245220   -0.000136    1.692548
  H      1.770879    1.385065    3.043975
  H      3.418778    0.819615    2.573920
  C      3.013243    1.552617   -0.427405
  H      3.045040    2.136796   -1.188382
  H      2.612007    0.575736   -0.711177
  H      4.286893    1.257886    0.032578
  C      0.872153    2.071043    0.725359
  H      0.668947    2.837540   -0.153301
  H      0.325812    2.421628    1.513770
  H      0.479622    1.104168    0.395821

----------------------------
CARTESIAN COORDINATES (A.U.)
----------------------------
  NO LB      ZA    FRAG     MASS         X           Y           Z
   0 Mn   25.0000    0    54.940    8.700775    8.266628    3.796318
   1 C     6.0000    0    12.011   12.065523    9.193167    6.321452
   2 C     6.0000    0    12.011   11.495553    6.535475    6.452518
   3 C     6.0000    0    12.011   11.623410    5.598420    3.914255
   4 H     1.0000    0     1.008   11.392774    3.642995    3.390439
   5 C     6.0000    0    12.011   12.336437    7.559506    2.224227
   6 C     6.0000    0    12.011   12.501888    9.753625    3.734110
   7 H     1.0000    0     1.008   13.011540   11.596595    3.036050
   8 C     6.0000    0    12.011    4.976994   10.267437    4.578166
   9 C     6.0000    0    12.011    5.811287   10.805945    2.044848
  10 C     6.0000    0    12.011    6.081124    8.416713    0.807455
  11 H     1.0000    0     1.008    6.583323    8.183658   -1.150407
  12 C     6.0000    0    12.011    5.383406    6.414844    2.446023
  13 C     6.0000    0    12.011    4.813758    7.594217    4.776619
  14 H     1.0000    0     1.008    4.178289    6.609699    6.443493
  15 C     6.0000    0    12.011   12.752521   11.209371    8.291818
  16 C     6.0000    0    12.011   12.497707   13.870849    7.167375
  17 H     1.0000    0     1.008   13.910842   14.238977    5.711404
  18 H     1.0000    0     1.008   12.787826   15.270839    8.657357
  19 H     1.0000    0     1.008   10.638002   14.178806    6.343094
  20 C     6.0000    0    12.011   11.200389   11.199936   10.723304
  21 H     1.0000    0     1.008    9.208138   11.556761   10.337735
  22 H     1.0000    0     1.008   11.873622   12.708757   11.964253
  23 H     1.0000    0     1.008   11.344696    9.441749   11.774771
  24 C     6.0000    0    12.011   15.570350   10.888727    8.940429
  25 H     1.0000    0     1.008   15.979509    9.093763    9.856593
  26 H     1.0000    0     1.008   16.170236   12.406784   10.210129
  27 H     1.0000    0     1.008   16.717197   10.998568    7.227234
  28 C     6.0000    0    12.011   11.199327    4.707158    8.695387
  29 C     6.0000    0    12.011    8.751124    5.083782   10.184336
  30 H     1.0000    0     1.008    8.568116    6.985636   10.939977
  31 H     1.0000    0     1.008    8.684072    3.760729   11.772426
  32 H     1.0000    0     1.008    7.116431    4.722073    8.981170
  33 C     6.0000    0    12.011   13.471641    4.877359   10.488913
  34 H     1.0000    0     1.008   15.244155    4.654207    9.452944
  35 H     1.0000    0     1.008   13.356717    3.354216   11.881108
  36 H     1.0000    0     1.008   13.555214    6.646651   11.529184
  37 C     6.0000    0    12.011   11.190916    1.961928    7.767212
  38 H     1.0000    0     1.008    9.604463    1.567975    6.519654
  39 H     1.0000    0     1.008   11.019964    0.704332    9.396371
  40 H     1.0000    0     1.008   12.941930    1.481339    6.784396
  41 C     6.0000    0    12.011   13.487533    7.240990   -0.382141
  42 C     6.0000    0    12.011   16.162107    6.179357    0.013072
  43 H     1.0000    0     1.008   17.282651    7.434128    1.210684
  44 H     1.0000    0     1.008   17.134599    5.975801   -1.800613
  45 H     1.0000    0     1.008   16.097331    4.326559    0.921152
  46 C     6.0000    0    12.011   13.723879    9.766468   -1.754545
  47 H     1.0000    0     1.008   11.891142   10.681129   -1.982175
  48 H     1.0000    0     1.008   14.529065    9.475990   -3.634771
  49 H     1.0000    0     1.008   14.967412   11.067726   -0.743272
  50 C     6.0000    0    12.011   12.017549    5.396784   -2.034472
  51 H     1.0000    0     1.008   11.836653    3.553356   -1.123971
  52 H     1.0000    0     1.008   13.003081    5.107399   -3.828316
  53 H     1.0000    0     1.008   10.125414    6.100269   -2.446195
  54 C     6.0000    0    12.011    3.822242   11.876073    6.696367
  55 C     6.0000    0    12.011    5.040783   14.449185    7.157248
  56 H     1.0000    0     1.008    7.013550   14.255650    7.718861
  57 H     1.0000    0     1.008    4.047062   15.404275    8.696818
  58 H     1.0000    0     1.008    4.957316   15.689914    5.522334
  59 C     6.0000    0    12.011    1.004345   12.246588    6.076087
  60 H     1.0000    0     1.008    0.707717   13.338475    4.358192
  61 H     1.0000    0     1.008    0.070668   13.236449    7.633343
  62 H     1.0000    0     1.008    0.076266   10.418959    5.830984
  63 C     6.0000    0    12.011    3.904901   10.455377    9.223286
  64 H     1.0000    0     1.008    2.644260    8.823577    9.238020
  65 H     1.0000    0     1.008    3.280550   11.714802   10.736128
  66 H     1.0000    0     1.008    5.802828    9.797706    9.669748
  67 C     6.0000    0    12.011    6.067274   13.273215    0.528241
  68 C     6.0000    0    12.011    6.549246   12.683969   -2.269406
  69 H     1.0000    0     1.008    8.274096   11.595343   -2.556281
  70 H     1.0000    0     1.008    6.756131   14.458429   -3.305001
  71 H     1.0000    0     1.008    4.977393   11.643667   -3.111473
  72 C     6.0000    0    12.011    3.588445   14.778010    0.561573
  73 H     1.0000    0     1.008    1.997972   13.588840   -0.004544
  74 H     1.0000    0     1.008    3.719228   16.343252   -0.781954
  75 H     1.0000    0     1.008    3.159953   15.588590    2.400730
  76 C     6.0000    0    12.011    8.242452   14.962438    1.404359
  77 H     1.0000    0     1.008    8.086368   15.489396    3.383973
  78 H     1.0000    0     1.008    8.274254   16.701757    0.286081
  79 H     1.0000    0     1.008   10.049157   14.004565    1.146845
  80 C     6.0000    0    12.011    4.535258    3.782482    1.680988
  81 C     6.0000    0    12.011    5.101182    1.805299    3.709615
  82 H     1.0000    0     1.008    4.242851   -0.000258    3.198452
  83 H     1.0000    0     1.008    3.346476    2.617394    5.752279
  84 H     1.0000    0     1.008    6.460553    1.548847    4.864005
  85 C     6.0000    0    12.011    5.694204    2.934020   -0.807679
  86 H     1.0000    0     1.008    5.754291    4.037960   -2.245717
  87 H     1.0000    0     1.008    4.935977    1.087983   -1.343929
  88 H     1.0000    0     1.008    8.101053    2.377061    0.061564
  89 C     6.0000    0    12.011    1.648131    3.913704    1.370729
  90 H     1.0000    0     1.008    1.264126    5.362173   -0.289696
  91 H     1.0000    0     1.008    0.615695    4.576214    2.860611
  92 H     1.0000    0     1.008    0.906355    2.086575    0.747993

--------------------------------
INTERNAL COORDINATES (ANGSTROEM)
--------------------------------
 Mn     0   0   0     0.000000000000     0.00000000     0.00000000
 C      1   0   0     2.279538543265     0.00000000     0.00000000
 C      2   1   0     1.440040040532    69.79189541     0.00000000
 C      3   2   1     1.433396069494   106.42960308    57.08384281
 H      4   3   2     1.078180266757   124.58161097   176.35372334
[...]
freq.     324.36  E(vib)   ...       0.25 
freq.     331.35  E(vib)   ...       0.24 
freq.     345.36  E(vib)   ...       0.23 
freq.     352.38  E(vib)   ...       0.23 
freq.     358.36  E(vib)   ...       0.22 
freq.     358.54  E(vib)   ...       0.22 
freq.     367.90  E(vib)   ...       0.21 
freq.     371.18  E(vib)   ...       0.21 
freq.     379.54  E(vib)   ...       0.21 
freq.     379.62  E(vib)   ...       0.21 
freq.     381.46  E(vib)   ...       0.21 
freq.     390.15  E(vib)   ...       0.20 
freq.     393.65  E(vib)   ...       0.20 
freq.     403.32  E(vib)   ...       0.19 
freq.     407.66  E(vib)   ...       0.19 
freq.     411.08  E(vib)   ...       0.19 
freq.     421.56  E(vib)   ...       0.18 
freq.     431.23  E(vib)   ...       0.18 
freq.     446.80  E(vib)   ...       0.17 
freq.     467.23  E(vib)   ...       0.16 
freq.     469.15  E(vib)   ...       0.16 
freq.     471.69  E(vib)   ...       0.15 
freq.     487.29  E(vib)   ...       0.15 
freq.     498.06  E(vib)   ...       0.14 
freq.     552.64  E(vib)   ...       0.12 
freq.     559.30  E(vib)   ...       0.12 
freq.     559.65  E(vib)   ...       0.12 
freq.     563.05  E(vib)   ...       0.11 
freq.     567.18  E(vib)   ...       0.11 
freq.     569.53  E(vib)   ...       0.11 
freq.     601.16  E(vib)   ...       0.10 
freq.     603.37  E(vib)   ...       0.10 
freq.     654.64  E(vib)   ...       0.08 
freq.     657.93  E(vib)   ...       0.08 
freq.     692.86  E(vib)   ...       0.07 
freq.     693.78  E(vib)   ...       0.07 
freq.     706.13  E(vib)   ...       0.07 
freq.     710.66  E(vib)   ...       0.07 
freq.     828.96  E(vib)   ...       0.04 
freq.     829.76  E(vib)   ...       0.04 
freq.     831.35  E(vib)   ...       0.04 
freq.     831.89  E(vib)   ...       0.04 
freq.     848.33  E(vib)   ...       0.04 
freq.     851.39  E(vib)   ...       0.04 
freq.     854.93  E(vib)   ...       0.04 
freq.     856.67  E(vib)   ...       0.04 
freq.     872.70  E(vib)   ...       0.04 
freq.     874.75  E(vib)   ...       0.04 
freq.     932.70  E(vib)   ...       0.03 
freq.     933.88  E(vib)   ...       0.03 
freq.     934.75  E(vib)   ...       0.03 
freq.     934.94  E(vib)   ...       0.03 
freq.     940.81  E(vib)   ...       0.03 
freq.     941.39  E(vib)   ...       0.03 
freq.     944.31  E(vib)   ...       0.03 
freq.     944.57  E(vib)   ...       0.03 
freq.     949.47  E(vib)   ...       0.03 
freq.     949.70  E(vib)   ...       0.03 
freq.     950.92  E(vib)   ...       0.03 
freq.     951.47  E(vib)   ...       0.03 
freq.     952.20  E(vib)   ...       0.03 
freq.     952.80  E(vib)   ...       0.03 
freq.     953.04  E(vib)   ...       0.03 
freq.     953.91  E(vib)   ...       0.03 
freq.     955.82  E(vib)   ...       0.03 
freq.     959.46  E(vib)   ...       0.03 
freq.     965.70  E(vib)   ...       0.03 
freq.     970.17  E(vib)   ...       0.03 
freq.    1018.51  E(vib)   ...       0.02 
freq.    1021.16  E(vib)   ...       0.02 
freq.    1037.56  E(vib)   ...       0.02 
freq.    1038.57  E(vib)   ...       0.02 
freq.    1039.05  E(vib)   ...       0.02 
freq.    1040.16  E(vib)   ...       0.02 
freq.    1040.25  E(vib)   ...       0.02 
freq.    1040.89  E(vib)   ...       0.02 
freq.    1042.70  E(vib)   ...       0.02 
freq.    1043.84  E(vib)   ...       0.02 
freq.    1044.16  E(vib)   ...       0.02 
freq.    1044.67  E(vib)   ...       0.02 
freq.    1049.13  E(vib)   ...       0.02 
freq.    1051.86  E(vib)   ...       0.02 
freq.    1130.65  E(vib)   ...       0.01 
freq.    1131.68  E(vib)   ...       0.01 
freq.    1187.45  E(vib)   ...       0.01 
freq.    1187.64  E(vib)   ...       0.01 
freq.    1200.52  E(vib)   ...       0.01 
freq.    1204.51  E(vib)   ...       0.01 
freq.    1220.72  E(vib)   ...       0.01 
freq.    1221.83  E(vib)   ...       0.01 
freq.    1224.27  E(vib)   ...       0.01 
freq.    1226.04  E(vib)   ...       0.01 
freq.    1227.96  E(vib)   ...       0.01 
freq.    1228.55  E(vib)   ...       0.01 
freq.    1234.71  E(vib)   ...       0.01 
freq.    1235.35  E(vib)   ...       0.01 
freq.    1237.90  E(vib)   ...       0.01 
freq.    1239.21  E(vib)   ...       0.01 
freq.    1255.64  E(vib)   ...       0.01 
freq.    1256.18  E(vib)   ...       0.01 
freq.    1267.91  E(vib)   ...       0.01 
freq.    1269.71  E(vib)   ...       0.01 
freq.    1275.30  E(vib)   ...       0.01 
freq.    1276.69  E(vib)   ...       0.01 
freq.    1318.37  E(vib)   ...       0.01 
freq.    1321.21  E(vib)   ...       0.01 
freq.    1376.97  E(vib)   ...       0.01 
freq.    1377.74  E(vib)   ...       0.01 
freq.    1381.29  E(vib)   ...       0.01 
freq.    1382.18  E(vib)   ...       0.01 
freq.    1382.90  E(vib)   ...       0.01 
freq.    1383.83  E(vib)   ...       0.00 
freq.    1384.02  E(vib)   ...       0.00 
freq.    1386.08  E(vib)   ...       0.00 
freq.    1386.81  E(vib)   ...       0.00 
freq.    1387.17  E(vib)   ...       0.00 
freq.    1389.08  E(vib)   ...       0.00 
freq.    1392.48  E(vib)   ...       0.00 
freq.    1396.49  E(vib)   ...       0.00 
freq.    1403.84  E(vib)   ...       0.00 
freq.    1403.93  E(vib)   ...       0.00 
freq.    1403.99  E(vib)   ...       0.00 
freq.    1411.80  E(vib)   ...       0.00 
freq.    1412.90  E(vib)   ...       0.00 
freq.    1417.44  E(vib)   ...       0.00 
freq.    1417.67  E(vib)   ...       0.00 
freq.    1423.93  E(vib)   ...       0.00 
freq.    1429.07  E(vib)   ...       0.00 
freq.    1453.92  E(vib)   ...       0.00 
freq.    1458.76  E(vib)   ...       0.00 
freq.    1464.08  E(vib)   ...       0.00 
freq.    1465.71  E(vib)   ...       0.00 
freq.    1466.44  E(vib)   ...       0.00 
freq.    1466.51  E(vib)   ...       0.00 
freq.    1467.81  E(vib)   ...       0.00 
freq.    1468.09  E(vib)   ...       0.00 
freq.    1468.13  E(vib)   ...       0.00 
freq.    1473.87  E(vib)   ...       0.00 
freq.    1473.97  E(vib)   ...       0.00 
freq.    1476.46  E(vib)   ...       0.00 
freq.    1477.88  E(vib)   ...       0.00 
freq.    1479.02  E(vib)   ...       0.00 
freq.    1482.24  E(vib)   ...       0.00 
freq.    1483.79  E(vib)   ...       0.00 
freq.    1486.42  E(vib)   ...       0.00 
freq.    1486.98  E(vib)   ...       0.00 
freq.    1488.29  E(vib)   ...       0.00 
freq.    1489.12  E(vib)   ...       0.00 
freq.    1489.24  E(vib)   ...       0.00 
freq.    1490.88  E(vib)   ...       0.00 
freq.    1491.41  E(vib)   ...       0.00 
freq.    1491.63  E(vib)   ...       0.00 
freq.    1493.68  E(vib)   ...       0.00 
freq.    1494.93  E(vib)   ...       0.00 
freq.    1497.59  E(vib)   ...       0.00 
freq.    1497.97  E(vib)   ...       0.00 
freq.    1499.13  E(vib)   ...       0.00 
freq.    1501.71  E(vib)   ...       0.00 
freq.    1504.96  E(vib)   ...       0.00 
freq.    1507.91  E(vib)   ...       0.00 
freq.    1508.65  E(vib)   ...       0.00 
freq.    1513.77  E(vib)   ...       0.00 
freq.    1517.70  E(vib)   ...       0.00 
freq.    1520.40  E(vib)   ...       0.00 
freq.    1523.65  E(vib)   ...       0.00 
freq.    1527.19  E(vib)   ...       0.00 
freq.    1539.09  E(vib)   ...       0.00 
freq.    1539.26  E(vib)   ...       0.00 
freq.    3037.71  E(vib)   ...       0.00 
freq.    3037.77  E(vib)   ...       0.00 
freq.    3046.69  E(vib)   ...       0.00 
freq.    3046.79  E(vib)   ...       0.00 
freq.    3048.02  E(vib)   ...       0.00 
freq.    3048.14  E(vib)   ...       0.00 
freq.    3048.87  E(vib)   ...       0.00 
freq.    3049.39  E(vib)   ...       0.00 
freq.    3050.82  E(vib)   ...       0.00 
freq.    3050.88  E(vib)   ...       0.00 
freq.    3053.60  E(vib)   ...       0.00 
freq.    3054.10  E(vib)   ...       0.00 
freq.    3056.51  E(vib)   ...       0.00 
freq.    3056.79  E(vib)   ...       0.00 
freq.    3057.18  E(vib)   ...       0.00 
freq.    3058.68  E(vib)   ...       0.00 
freq.    3063.17  E(vib)   ...       0.00 
freq.    3065.20  E(vib)   ...       0.00 
freq.    3111.67  E(vib)   ...       0.00 
freq.    3111.81  E(vib)   ...       0.00 
freq.    3113.61  E(vib)   ...       0.00 
freq.    3113.68  E(vib)   ...       0.00 
freq.    3114.87  E(vib)   ...       0.00 
freq.    3114.99  E(vib)   ...       0.00 
freq.    3116.33  E(vib)   ...       0.00 
freq.    3117.25  E(vib)   ...       0.00 
freq.    3121.25  E(vib)   ...       0.00 
freq.    3121.31  E(vib)   ...       0.00 
freq.    3121.39  E(vib)   ...       0.00 
freq.    3123.81  E(vib)   ...       0.00 
freq.    3123.89  E(vib)   ...       0.00 
freq.    3124.03  E(vib)   ...       0.00 
freq.    3124.28  E(vib)   ...       0.00 
freq.    3124.59  E(vib)   ...       0.00 
freq.    3132.13  E(vib)   ...       0.00 
freq.    3132.60  E(vib)   ...       0.00 
freq.    3133.70  E(vib)   ...       0.00 
freq.    3134.07  E(vib)   ...       0.00 
freq.    3139.15  E(vib)   ...       0.00 
freq.    3139.23  E(vib)   ...       0.00 
freq.    3144.55  E(vib)   ...       0.00 
freq.    3145.65  E(vib)   ...       0.00 
freq.    3146.73  E(vib)   ...       0.00 
freq.    3146.89  E(vib)   ...       0.00 
freq.    3159.66  E(vib)   ...       0.00 
freq.    3160.68  E(vib)   ...       0.00 
freq.    3161.75  E(vib)   ...       0.00 
freq.    3161.94  E(vib)   ...       0.00 
freq.    3167.90  E(vib)   ...       0.00 
freq.    3168.14  E(vib)   ...       0.00 
freq.    3174.70  E(vib)   ...       0.00 
freq.    3175.06  E(vib)   ...       0.00 
freq.    3183.43  E(vib)   ...       0.00 
freq.    3183.52  E(vib)   ...       0.00 
freq.    3271.81  E(vib)   ...       0.00 
freq.    3271.89  E(vib)   ...       0.00 
freq.    3276.46  E(vib)   ...       0.00 
freq.    3276.60  E(vib)   ...       0.00 

------------
INNER ENERGY
------------

The inner energy is: U= E(el) + E(ZPE) + E(vib) + E(rot) + E(trans)
    E(el)   - is the total energy from the electronic structure calculation
              = E(kin-el) + E(nuc-el) + E(el-el) + E(nuc-nuc)
    E(ZPE)  - the the zero temperature vibrational energy from the frequency calculation
    E(vib)  - the the finite temperature correction to E(ZPE) due to population
              of excited vibrational states
    E(rot)  - is the rotational thermal energy
    E(trans)- is the translational thermal energy

Summary of contributions to the inner energy U:
Electronic energy                ...  -2480.17513091 Eh
Zero point energy                ...      0.84426315 Eh     529.78 kcal/mol
Thermal vibrational correction   ...      0.03938128 Eh      24.71 kcal/mol
Thermal rotational correction    ...      0.00141627 Eh       0.89 kcal/mol
Thermal translational correction ...      0.00141627 Eh       0.89 kcal/mol
-----------------------------------------------------------------------
Total thermal energy                  -2479.28865394 Eh


Summary of corrections to the electronic energy:
(perhaps to be used in another calculation)
Total thermal correction                  0.04221382 Eh      26.49 kcal/mol
Non-thermal (ZPE) correction              0.84426315 Eh     529.78 kcal/mol
-----------------------------------------------------------------------
Total correction                          0.88647697 Eh     556.27 kcal/mol


--------
ENTHALPY
--------

The enthalpy is H = U + kB*T
                kB is Boltzmann's constant
Total thermal energy              ...  -2479.28865394 Eh 
Thermal Enthalpy correction       ...      0.00094421 Eh       0.59 kcal/mol
-----------------------------------------------------------------------
Total Enthalpy                    ...  -2479.28770973 Eh


Note: Only C1 symmetry has been detected, increase convergence thresholds 
      if your molecule has a higher symmetry. Symmetry factor of 1.0 is   
      used for the rotational entropy correction. 
 

Note: Rotational entropy computed according to Herzberg 
Infrared and Raman Spectra, Chapter V,1, Van Nostrand Reinhold, 1945 
Point Group:  C1, Symmetry Number:   1  
Rotational constants in cm-1:     0.004353     0.003826     0.003602 

Vibrational entropy computed according to the QRRHO of S. Grimme
Chem.Eur.J. 2012 18 9955 using a reference frequency of 100.0 cm-1


-------
ENTROPY
-------

The entropy contributions are T*S = T*(S(el)+S(vib)+S(rot)+S(trans))
     S(el)   - electronic entropy
     S(vib)  - vibrational entropy
     S(rot)  - rotational entropy
     S(trans)- translational entropy
The entropies will be listed as multiplied by the temperature to get
units of energy

Electronic entropy                ...      0.00065446 Eh      0.41 kcal/mol
Vibrational entropy               ...      0.06745467 Eh     42.33 kcal/mol
Rotational entropy                ...      0.01736117 Eh     10.89 kcal/mol
Translational entropy             ...      0.02121102 Eh     13.31 kcal/mol
-----------------------------------------------------------------------
Final entropy term                ...      0.10668132 Eh     66.94 kcal/mol

In case the symmetry of your molecule has not been determined correctly
or in case you have a reason to use a different symmetry number we print 
out the resulting rotational entropy values for sn=1,12:

 non-linear molecules -----------------------------------
|  sn= 1 | S(rot)=       0.01736117 Eh     10.89 kcal/mol|
|  sn= 2 | S(rot)=       0.01670672 Eh     10.48 kcal/mol|
|  sn= 3 | S(rot)=       0.01632388 Eh     10.24 kcal/mol|
|  sn= 4 | S(rot)=       0.01605226 Eh     10.07 kcal/mol|
|  sn= 5 | S(rot)=       0.01584157 Eh      9.94 kcal/mol|
|  sn= 6 | S(rot)=       0.01566943 Eh      9.83 kcal/mol|
|  sn= 7 | S(rot)=       0.01552388 Eh      9.74 kcal/mol|
|  sn= 8 | S(rot)=       0.01539780 Eh      9.66 kcal/mol|
|  sn= 9 | S(rot)=       0.01528660 Eh      9.59 kcal/mol|
|  sn=10 | S(rot)=       0.01518712 Eh      9.53 kcal/mol|
|  sn=11 | S(rot)=       0.01509713 Eh      9.47 kcal/mol|
|  sn=12 | S(rot)=       0.01501497 Eh      9.42 kcal/mol|
 linear molecules ---------------------------------------
|  Dinfh | S(rot)=       0.01063792 Eh      6.68 kcal/mol|
|  Cinfv | S(rot)=       0.01129238 Eh      7.09 kcal/mol|
 --------------------------------------------------------


-------------------
GIBBS FREE ENERGY
-------------------

The Gibbs free energy is G = H - T*S

Total enthalpy                    ...  -2479.28770973 Eh 
Total entropy correction          ...     -0.10668132 Eh    -66.94 kcal/mol
-----------------------------------------------------------------------
Final Gibbs free energy         ...  -2479.39439105 Eh

For completeness - the Gibbs free energy minus the electronic energy
G-E(el)                           ...      0.78073986 Eh    489.92 kcal/mol


Maximum memory used throughout the entire PROP-calculation: 2084.6 MB

--------------------------------
SUGGESTED CITATIONS FOR THIS RUN
--------------------------------

Below you find a list of papers that are relevant to this ORCA run
We neither can nor want to force you to cite these papers, but we appreciate if you do
You receive ORCA, which is the product of decades of hard work by many enthusiastic individuals, for free
The only thing we kindly ask in return is that you cite our papers,
We deeply appreciate it, if you show your appreciation for ORCA by not just citing the generic ORCA reference.

Please note that relegating all ORCA citations to the supporting information does *not* help us.
SI sections are not indexed - citations you put there will not count into any citation statistics
But we need these citations in order to attract the funding resources that allow us to do what we are doing

Therefore, if you are a happy ORCA user, please consider citing a few of the papers listed below in the main body of your paper

In addition to the list printed below, the program has created the file BUBGUB-S6.bibtex that contains the list in bibtex format
You can import this file easily into all common literature databanks and citation aid programs


List of essential papers. We consider these as the minimum necessary citations

  1. Neese,F.
     Software update: the ORCA program system, version 5.0
     WIRES Comput. Molec. Sci., 2022 12(1)e1606
     doi.org/10.1002/wcms.1606

List of papers to cite with high priority. The work reported in these papers was absolutely
necessary for this run to complete.
Our perspective: the developers of density functionals and basis sets usually get cited in chemistry papers
Good! But without the algorithms to do something with them, the functionals or basis sets would not do anything.
Hence, in our opinion, the algorithm design and method developments papers are equally worthy of getting cited

  1. Neese,F.
     An improvement of the resolution of the identity approximation for the formation of the Coulomb matrix
     J. Comp. Chem., 2003 24(14)1740-1747
     doi.org/10.1002/jcc.10318
  2. Neese,F.; Wennmohs,F.; Hansen,A.; Becker,U.
     Efficient, approximate and parallel Hartree-Fock and hybrid DFT calculations. A 'chain-of-spheres' algorithm for the Hartree-Fock exchange
     Chem. Phys., 2009 356(1-3)98-109
     doi.org/10.1016/j.chemphys.2008.10.036
  3. Bykov,D.; Petrenko,T.; Izsak,R.; Kossmann,S.; Becker,U.; Valeev,E.; Neese,F.
     Efficient implementation of the analytic second derivatives of Hartree-Fock and hybrid DFT energies: a detailed analysis of different approximations
     Molec. Phys., 2015 113 1961-1977
     doi.org/10.1080/00268976.2015.1025114
  4. Helmich-Paris,B.; de Souza,B.; Neese,F.; Izsák,R.
     An improved chain of spheres for exchange algorithm
     J. Chem. Phys., 2021 155 104109
     doi.org/doi: 10.1063/5.0058766.
  5. Neese,F.
     The SHARK Integral Generation and Digestion System
     J. Comp. Chem., 2022  1-16
     doi.org/10.1002/jcc.26942

List of suggested additional citations. These are papers that are important in the 'surrounding' of 
of this run, or papers that preceded the highly important papers. If you like your results we are grateful for a citation.

  1. Izsak,R.; Neese,F.
     An overlap fitted chain of spheres exchange method
     J. Chem. Phys., 2011 135 144105
     doi.org/10.1063/1.3646921
  2. Izsak,R.; Hansen,A.; Neese,F.
     The resolution of identity and chain of spheres approximations for the LPNO-CCSD singles Fock term
     Molec. Phys., 2012 110 2413-2417
     doi.org/10.1080/00268976.2012.687466
  3. Neese,F.
     The ORCA program system
     WIRES Comput. Molec. Sci., 2012 2(1)73-78
     doi.org/10.1002/wcms.81
  4. Izsak,R.; Neese,F.; Klopper,W.
     Robust fitting techniques in the chain of spheres approximation to the Fock exchange: The role of the complementary space
     J. Chem. Phys., 2013 139 
     doi.org/10.1063/1.4819264
  5. Neese,F.
     Software update: the ORCA program system, version 4.0
     WIRES Comput. Molec. Sci., 2018 8(1)1-6
     doi.org/10.1002/wcms.1327
  6. Neese,F.; Wennmohs,F.; Becker,U.; Riplinger,C.
     The ORCA quantum chemistry program package
     J. Chem. Phys., 2020 152 Art. No. L224108
     doi.org/10.1063/5.0004608

List of optional additional citations

  1. Neese,F.
     Approximate second-order SCF convergence for spin unrestricted wavefunctions
     Chem. Phys. Lett., 2000 325(1-3)93-98
     doi.org/10.1016/s0009-2614(00)00662-x

Timings for individual modules:

Sum of individual times          ...   103740.084 sec (=1729.001 min)
Startup calculation              ...      401.257 sec (=   6.688 min)   0.4 %
SCF iterations                   ...    18669.079 sec (= 311.151 min)  18.0 %
Property integrals               ...    22221.255 sec (= 370.354 min)  21.4 %
SCF Response                     ...    50324.898 sec (= 838.748 min)  48.5 %
Property calculations            ...     6927.627 sec (= 115.460 min)   6.7 %
SCF Gradient evaluation          ...     5192.378 sec (=  86.540 min)   5.0 %
Geometry relaxation              ...        3.590 sec (=   0.060 min)   0.0 %
                             ****ORCA TERMINATED NORMALLY****
TOTAL RUN TIME: 1 days 4 hours 49 minutes 34 seconds 480 msec
