
                                 *****************
                                 * O   R   C   A *
                                 *****************

                                            #,                                       
                                            ###                                      
                                            ####                                     
                                            #####                                    
                                            ######                                   
                                           ########,                                 
                                     ,,################,,,,,                         
                               ,,#################################,,                 
                          ,,##########################################,,             
                       ,#########################################, ''#####,          
                    ,#############################################,,   '####,        
                  ,##################################################,,,,####,       
                ,###########''''           ''''###############################       
              ,#####''   ,,,,##########,,,,          '''####'''          '####       
            ,##' ,,,,###########################,,,                        '##       
           ' ,,###''''                  '''############,,,                           
         ,,##''                                '''############,,,,        ,,,,,,###''
      ,#''                                            '''#######################'''  
     '                                                          ''''####''''         
             ,#######,   #######,   ,#######,      ##                                
            ,#'     '#,  ##    ##  ,#'     '#,    #''#        ,####,   ,####,        
            ##       ##  ##   ,#'  ##            #'  '#       #'       #'  '#        
            ##       ##  #######   ##           ,######,      #####,   #    #        
            '#,     ,#'  ##    ##  '#,     ,#' ,#      #,     #,   #   #,  ,#        
             '#######'   ##     ##  '#######'  #'      '#     '####' # '####'        



                #########################################################
                #                        -***-                          #
                #          Department of theory and spectroscopy        #
                #                                                       #
                #                      Frank Neese                      #
                #                                                       #
                #     Directorship, Architecture, Infrastructure        #
                #                    SHARK, DRIVERS                     #
                #        Core code/Algorithms in most modules           #
                #                                                       #
                #        Max Planck Institute fuer Kohlenforschung      #
                #                Kaiser Wilhelm Platz 1                 #
                #                 D-45470 Muelheim/Ruhr                 #
                #                      Germany                          #
                #                                                       #
                #                  All rights reserved                  #
                #                        -***-                          #
                #########################################################


                         Program Version 6.0.1  -  RELEASE   -


 With contributions from (in alphabetic order):
[Max-Planck-Institut fuer Kohlenforschung]                               
  Daniel Aravena         : Magnetic Suceptibility                        
  Michael Atanasov       : Ab Initio Ligand Field Theory (pilot matlab implementation)
  Alexander A. Auer      : GIAO ZORA, VPT2 properties, NMR spectrum      
  Ute Becker             : All parallelization in ORCA, NUMFREQ, NUMCALC 
  Giovanni Bistoni       : ED, misc. LED, open-shell LED, HFLD           
  Martin Brehm           : Molecular dynamics                            
  Dmytro Bykov           : pre 5.0 version of the SCF Hessian            
  Marcos Casanova-Páez   : Triplet and SCS-CIS(D). UHF-(DLPNO)-IP/EA/STEOM-CCSD. UHF-CVS-IP/STEOM-CCSD   
  Vijay G. Chilkuri      : MRCI spin determinant printing, contributions to CSF-ICE 
  Pauline Colinet        : FMM embedding                                 
  Dipayan Datta          : RHF DLPNO-CCSD density                        
  Achintya Kumar Dutta   : EOM-CC, STEOM-CC                              
  Nicolas Foglia         : Exact transition moments, OPA infrastructure, MCD improvements    
  Dmitry Ganyushin       : Spin-Orbit,Spin-Spin,Magnetic field MRCI      
  Miquel Garcia-Rates    : C-PCM and meta-GGA Hessian, CCSD/C-PCM, Gaussian charge scheme 
  Tiago L. C. Gouveia    : GS-ROHF, GS-ROCIS                             
  Yang Guo               : DLPNO-NEVPT2, F12-NEVPT2, CIM, IAO-localization        
  Andreas Hansen         : Spin unrestricted coupled pair/coupled cluster methods 
  Ingolf Harden          : AUTO-CI MPn and infrastructure                
  Benjamin Helmich-Paris : MC-RPA, TRAH-(SCF,CASSCF), AVAS, COSX integrals, SCF dyn. polar. 
  Lee Huntington         : MR-EOM, pCC                                   
  Robert Izsak           : Overlap fitted RIJCOSX, COSX-SCS-MP3, EOM     
  Riya Kayal             : Wick's Theorem for AUTO-CI, AUTO-CI UHF-CCSDT 
  Emily Kempfer          : AUTO-CI, RHF CISDT and CCSDT                  
  Christian Kollmar      : KDIIS, OOCD, Brueckner-CCSD(T), CCSD density, CASPT2, CASPT2-K, improved NEVPT2 
  Axel Koslowski         : Symmetry handling                             
  Simone Kossmann        : meta-GGA functionals, TD-DFT gradient, OOMP2, (MP2 Hessian; deprecated post 5.0) 
  Lucas Lang             : DCDCAS                                        
  Marvin Lechner         : AUTO-CI (C++ implementation), FIC-MRCC        
  Spencer Leger          : CASSCF response                               
  Dagmar Lenk            : GEPOL surface, SMD, ORCA-2-JSON               
  Dimitrios Liakos       : Extrapolation schemes; Compound Job, initial MDCI parallelization 
  Dimitrios Manganas     : Further ROCIS development; embedding schemes. LFT, Crystal Embedding 
  Dimitrios Pantazis     : SARC Basis sets                               
  Anastasios Papadopoulos: AUTO-CI, single reference methods and gradients 
  Taras Petrenko         : pre 6.0 DFT Hessian and TD-DFT gradient, (ASA, deprecated), ECA, 1-Electron XAS/XES, NRVS 
  Peter Pinski           : DLPNO-MP2, DLPNO-MP2 Gradient                 
  Christoph Reimann      : Effective Core Potentials                     
  Marius Retegan         : Local ZFS, SOC                                
  Christoph Riplinger    : Optimizer, TS searches, QM/MM, DLPNO-CCSD(T), (RO)-DLPNO pert. Triples 
  Michael Roemelt        : Original ROCIS implementation                 
  Masaaki Saitow         : Open-shell DLPNO-CCSD energy and density      
  Barbara Sandhoefer     : DKH picture change effects                    
  Kantharuban Sivalingam : CASSCF convergence/infrastructure, NEVPT2 and variants, FIC-MRCI 
  Bernardo de Souza      : ESD, SOC TD-DFT                               
  Georgi L. Stoychev     : AutoAux, RI-MP2 NMR, DLPNO-MP2 response, X2C  
  Van Anh Tran           : RI-MP2 g-tensors                              
  Willem Van den Heuvel  : Paramagnetic NMR                              
  Zikuan Wang            : NOTCH, Electric field optimization            
  Frank Wennmohs         : Technical directorship and infrastructure     
  Hang Xu                : AUTO-CI-Response properties                   
                                                                         
[FACCTs GmbH]                                                            
  Markus Bursch, Miquel Garcia-Rates, Christoph Riplinger, Bernardo de Souza, Georgi L. Stoychev 
                                                                 
  APM, Basis sets (HGBS, AHGBS, def-TZVP (Ac-Lr), def2-XVPD (La-Lu)), CI-OPT, improved COSX, DLPNO-Multilevel,           
  DOCKER, DRACO, updates on ESD, GOAT, IRC, LR-CPCM, MBIS, meta-GGA TD-DFT gradient, ML-optimized integration grids, 
  MM, NACMEs, nearIR, NEB, NEB-TS, NL-DFT gradient (VV10), 2- and 3-layer-ONIOM, interface openCOSMO-RS, QMMM,   
  Crystal-QMMM, SF, symmetry and pop. for TD-DFT, r2SCAN hybrids, SOLVATOR                                   
                                                                         
[Other institutions]                                                     
  V. Asgeirsson          : NEB                                           
  Christoph Bannwarth    : sTDA-DFT, sTD-DFT, PBEh-3c, B97-3c, D3        
  Sebastian Ehlert       : rSCAN, r2SCAN, r2SCAN-3c, D4, dhf basis sets  
  Marvin Friede          : D4 for Fr, Ra, Ac-Lr                          
  Lars Goerigk           : TD-DFT with DH, B97 family of functionals     
  Stefan Grimme          : VdW corrections, initial TS optimization, DFT functionals, gCP, sTDA/sTD-DF 
  Waldemar Hujo          : DFT-NL                                        
  H. Jonsson             : NEB                                           
  Holger Kruse           : gCP                                           
  Marcel Mueller         : wB97X-3c, vDZP basis set                      
  Hagen Neugebauer       : wr2SCAN                                       
  Tobias Risthaus        : range-separated hybrid DFT                    
  Lukas Wittmann         : regularized MP2, r2SCAN double-hybrids, wr2SCAN        
                                                                         
We gratefully acknowledge several colleagues who have allowed us to      
interface, adapt or use parts of their codes:                            
  Ed Valeev, F. Pavosevic, A. Kumar             : LibInt (2-el integral package), F12 methods 
  Garnet Chan, S. Sharma, J. Yang, R. Olivares  : DMRG                   
  Ulf Ekstrom                                   : XCFun DFT Library      
  Mihaly Kallay                                 : mrcc  (arbitrary order and MRCC methods)
  Frank Weinhold                                : gennbo (NPA and NBO analysis)           
  Simon Mueller                                 : openCOSMO-RS                            
  Christopher J. Cramer and Donald G. Truhlar   : smd solvation model                     
  S Lehtola, MJT Oliveira, MAL Marques          : LibXC Library                           
  Liviu Ungur et al                             : ANISO software                          


 Your calculation uses the libint2 library for the computation of 2-el integrals
 For citations please refer to: http://libint.valeyev.net

 Your ORCA version has been built with support for libXC version: 6.2.2
 For citations please refer to: https://libxc.gitlab.io

 This ORCA versions uses:
   CBLAS   interface :  Fast vector & matrix operations
   LAPACKE interface :  Fast linear algebra routines
   SCALAPACK package :  Parallel linear algebra routines
   Shared memory     :  Shared parallel matrices
   BLAS/LAPACK       :  OpenBLAS 0.3.27  USE64BITINT DYNAMIC_ARCH NO_AFFINITY Cooperlake SINGLE_THREADED
        Core in use  :  Cooperlake
   Copyright (c) 2011-2014, The OpenBLAS Project


NOTE: MaxCore=3600 MB was set to SCF,MP2,MDCI,CIPSI,MRCI and CIS
      => If you want to overwrite this, your respective input block should be placed after the MaxCore statement
Warning: RI is on but no J-basis has been assigned. Assigning Def2/J (nothing to worry about!)
================================================================================

----- Orbital basis set information -----
Your calculation utilizes the basis: def2-TZVP
   F. Weigend and R. Ahlrichs, Phys. Chem. Chem. Phys. 7, 3297 (2005).

----- AuxJ basis set information -----
Your calculation utilizes the auxiliary basis: def2/J
   F. Weigend, Phys. Chem. Chem. Phys. 8, 1057 (2006).

================================================================================
                                        WARNINGS
                       Please study these warnings very carefully!
================================================================================


WARNING: your system is open-shell and RHF/RKS was chosen
  ===> : WILL SWITCH to UHF/UKS


WARNING: Geometry Optimization
  ===> : Switching off AutoStart
         For restart on a previous wavefunction, please use MOREAD

================================================================================
                                       INPUT FILE
================================================================================
NAME = BUSMOR-S6.inp
|  1> ! PBE0 def2-TZVP  Opt Freq DEFGRID3
|  2> 
|  3> %maxcore 3600
|  4> 
|  5> %pal
|  6>     nprocs 16
|  7> end
|  8> 
|  9> *xyz 0 2
| 10> Mn 5.4384 1.3269 2.7118
| 11> P 6.6065 -1.5823 3.8284
| 12> P 4.3487 0.0305 5.5249
| 13> P 7.9746 3.3023 1.9939
| 14> P 5.5888 2.9524 -0.1713
| 15> C 6.269 -0.6997 2.308
| 16> C 3.7899 0.9029 4.1401
| 17> B 5.1301 -1.6816 5.0443
| 18> C 5.4298 1.1512 6.4481
| 19> C 3.0722 -0.316 6.7574
| 20> C 7.1594 -3.3068 3.5691
| 21> C 8.0826 -0.79 4.5446
| 22> C 6.9701 2.7989 3.3311
| 23> C 4.4537 2.3588 0.9755
| 24> B 6.9745 4.063 0.5235
| 25> C 8.9627 1.8622 1.499
| 26> C 9.2547 4.5031 2.4032
| 27> C 6.2844 1.501 -1.0231
| 28> C 4.8259 3.9162 -1.5228
| 29> H 5.661 0.5417 7.3761
| 30> H 8.3009 -1.3995 5.3298
| 31> H 8.7888 1.0722 2.2604
| 32> H 10.2093 4.5483 1.9273
| 33> H 5.5818 1.6478 -1.8321
| 34> H 7.1854 -0.6772 1.6894
| 35> H 5.6109 -1.3205 1.6656
| 36> H 3.017 0.3386 3.6642
| 37> H 3.3339 1.7945 4.4732
| 38> H 7.5764 2.4829 4.1877
| 39> H 6.4871 3.7244 3.7832
| 40> H 3.8111 3.1149 1.3325
| 41> H 3.7731 1.6365 0.4997
| 42> H 7.2018 -3.8372 4.4494
| 43> H 8.1057 -3.3181 3.0932
| 44> H 7.8952 0.158 4.9729
| 45> H 8.9048 -0.7336 3.9498
| 46> H 4.9234 2.0541 6.7812
| 47> H 6.2922 1.4672 5.9722
| 48> H 2.3955 0.5079 6.924
| 49> H 3.4419 -0.5643 7.733
| 50> H 10.017 2.0653 1.4276
| 51> H 8.702 1.4785 0.5235
| 52> H 9.4694 4.379 3.4263
| 53> H 8.8391 5.4511 2.2604
| 54> H 6.25 0.5756 -0.6186
| 55> H 7.3021 1.6252 -1.4514
| 56> H 4.1849 3.3068 -2.0701
| 57> H 5.6039 4.2323 -2.189
| 58> H 6.4343 -3.6905 2.9266
| 59> H 2.4884 -1.1173 6.4243
| 60> H 4.3343 4.7627 -1.1659
| 61> H 5.4854 -2.2685 6.0912
| 62> H 4.2546 -2.4265 4.5922
| 63> H 7.7898 4.3451 -0.2855
| 64> H 6.525 5.1013 0.9755
| 65> *
| 66> 
| 67>                          ****END OF INPUT****
================================================================================

                       *****************************
                       * Geometry Optimization Run *
                       *****************************

Geometry optimization settings:
Update method            Update   .... BFGS
Choice of coordinates    CoordSys .... (2022) Redundant Internals
Initial Hessian          InHess   .... Almloef's Model
Max. no of cycles        MaxIter  .... 165

Convergence Tolerances:
Energy Change            TolE     ....  5.0000e-06 Eh
Max. Gradient            TolMAXG  ....  3.0000e-04 Eh/bohr
RMS Gradient             TolRMSG  ....  1.0000e-04 Eh/bohr
Max. Displacement        TolMAXD  ....  4.0000e-03 bohr
RMS Displacement         TolRMSD  ....  2.0000e-03 bohr
Strict Convergence                .... False

------------------------------------------------------------------------------
                        ORCA OPTIMIZATION COORDINATE SETUP
------------------------------------------------------------------------------

The optimization will be done in redundant internal coordinates (2022)
Making redundant internal coordinates   ...  (2022 redundants) done
Evaluating the initial hessian          ...  (Almloef) done
Evaluating the coordinates              ...  done
Calculating the B-matrix                .... done
Calculating the G-matrix                .... done
Diagonalizing the G-matrix              .... done
Small eigenvalue found = 7.377e-03
Small eigenvalue found = 1.016e-02
Small eigenvalue found = 1.333e-02
Small eigenvalue found = 2.641e-02
Small eigenvalue found = 2.731e-02
Small eigenvalue found = 2.784e-02
The first mode is                       ....  131
The number of degrees of freedom        ....  159

    -----------------------------------------------------------------
                    Redundant Internal Coordinates


    -----------------------------------------------------------------
         Definition                    Initial Value    Approx d2E/dq
    -----------------------------------------------------------------
      1. B(C   5,Mn  0)                  2.2271         0.291940   
      2. B(C   5,P   1)                  1.7901         0.482923   
      3. B(C   6,Mn  0)                  2.2220         0.297461   
      4. B(C   6,P   2)                  1.7295         0.603470   
      5. B(B   7,P   2)                  1.9424         0.319712   
      6. B(B   7,P   1)                  1.9152         0.353273   
      7. B(C   8,P   2)                  1.8103         0.448470   
      8. B(C   9,P   2)                  1.8079         0.452345   
      9. B(C  10,P   1)                  1.8294         0.417966   
     10. B(C  11,P   1)                  1.8220         0.429597   
     11. B(C  12,P   3)                  1.7466         0.566676   
     12. B(C  12,Mn  0)                  2.2128         0.307724   
     13. B(C  13,P   4)                  1.7193         0.626425   
     14. B(C  13,Mn  0)                  2.2470         0.271338   
     15. B(B  14,P   3)                  1.9342         0.329527   
     16. B(B  14,P   4)                  1.9069         0.364198   
     17. B(C  15,P   3)                  1.8153         0.440315   
     18. B(C  16,P   3)                  1.8022         0.461865   
     19. B(C  17,P   4)                  1.8210         0.431146   
     20. B(C  18,P   4)                  1.8269         0.421913   
     21. B(H  19,C   8)                  1.1341         0.306269   
     22. B(H  20,C  11)                  1.0177         0.469673   
     23. B(H  21,C  15)                  1.1109         0.333502   
     24. B(H  22,C  16)                  1.0676         0.390975   
     25. B(H  23,C  17)                  1.0815         0.371499   
     26. B(H  24,C   5)                  1.1059         0.339699   
     27. B(H  25,C   5)                  1.1096         0.335109   
     28. B(H  26,C   6)                  1.0688         0.389295   
     29. B(H  27,C   6)                  1.0554         0.408927   
     30. B(H  28,C  12)                  1.0960         0.352248   
     31. B(H  29,C  12)                  1.1376         0.302281   
     32. B(H  30,C  13)                  1.0545         0.410190   
     33. B(H  31,C  13)                  1.1006         0.346348   
     34. B(H  32,C  10)                  1.0286         0.451189   
     35. B(H  33,C  10)                  1.0593         0.403108   
     36. B(H  34,C  11)                  1.0570         0.406501   
     37. B(H  35,C  11)                  1.0164         0.471972   
     38. B(H  36,C   8)                  1.0875         0.363442   
     39. B(H  37,C   8)                  1.0344         0.441634   
     40. B(H  38,C   9)                  1.0791         0.374791   
     41. B(H  39,C   9)                  1.0724         0.384096   
     42. B(H  40,C  15)                  1.0761         0.379027   
     43. B(H  41,C  15)                  1.0802         0.373327   
     44. B(H  42,C  16)                  1.0527         0.412945   
     45. B(H  43,C  16)                  1.0449         0.424986   
     46. B(H  44,C  17)                  1.0105         0.482185   
     47. B(H  45,C  17)                  1.1111         0.333222   
     48. B(H  46,C  18)                  1.0401         0.432565   
     49. B(H  47,C  18)                  1.0719         0.384821   
     50. B(H  48,C  10)                  1.0420         0.429512   
     51. B(H  49,C   9)                  1.0459         0.423465   
     52. B(H  50,C  18)                  1.0419         0.429657   
     53. B(H  51,B   7)                  1.2517         0.230303   
     54. B(H  52,B   7)                  1.2352         0.244653   
     55. B(H  53,B  14)                  1.1827         0.296720   
     56. B(H  54,B  14)                  1.2184         0.260278   
     57. A(C   5,Mn  0,C  12)          113.4481         0.420221   
     58. A(C   6,Mn  0,C  13)          105.0229         0.412288   
     59. A(C  12,Mn  0,C  13)          102.3633         0.414780   
     60. A(C   6,Mn  0,C  12)          117.4243         0.421628   
     61. A(C   5,Mn  0,C   6)          102.6853         0.417688   
     62. A(C   5,Mn  0,C  13)          116.1814         0.410920   
     63. A(B   7,P   1,C  10)          105.9078         0.419021   
     64. A(C  10,P   1,C  11)          102.7548         0.430908   
     65. A(C   5,P   1,C  11)          105.7957         0.442271   
     66. A(B   7,P   1,C  11)          113.4239         0.421078   
     67. A(C   5,P   1,C  10)          113.6631         0.440083   
     68. A(C   5,P   1,B   7)          114.7990         0.429990   
     69. A(B   7,P   2,C   9)          106.4861         0.417473   
     70. A(B   7,P   2,C   8)          115.5704         0.416834   
     71. A(C   6,P   2,B   7)          112.1168         0.439618   
     72. A(C   8,P   2,C   9)          101.1074         0.440483   
     73. A(C   6,P   2,C   8)          106.7996         0.464180   
     74. A(C   6,P   2,C   9)          114.4822         0.464911   
     75. A(C  15,P   3,C  16)          101.7633         0.440680   
     76. A(B  14,P   3,C  16)          106.1333         0.421292   
     77. A(C  12,P   3,B  14)          113.4542         0.437035   
     78. A(B  14,P   3,C  15)          112.7190         0.417717   
     79. A(C  12,P   3,C  15)          107.0457         0.457342   
     80. A(C  12,P   3,C  16)          115.2558         0.461347   
     81. A(C  13,P   4,B  14)          115.9639         0.453174   
     82. A(C  13,P   4,C  18)          113.5716         0.462172   
     83. A(B  14,P   4,C  18)          105.4112         0.422012   
     84. A(C  17,P   4,C  18)          103.5304         0.431915   
     85. A(B  14,P   4,C  17)          110.9194         0.423647   
     86. A(C  13,P   4,C  17)          106.7994         0.464004   
     87. A(Mn  0,C   5,H  25)          113.1345         0.341874   
     88. A(P   1,C   5,H  25)          109.1291         0.355218   
     89. A(Mn  0,C   5,P   1)          111.4058         0.433569   
     90. A(H  24,C   5,H  25)          100.3124         0.284976   
     91. A(P   1,C   5,H  24)          109.2017         0.356039   
     92. A(Mn  0,C   5,H  24)          113.0762         0.342654   
     93. A(P   2,C   6,H  26)          108.8966         0.378651   
     94. A(H  26,C   6,H  27)          105.9100         0.300431   
     95. A(Mn  0,C   6,P   2)          111.7920         0.452934   
     96. A(Mn  0,C   6,H  26)          110.5508         0.351711   
     97. A(P   2,C   6,H  27)          108.2423         0.381895   
     98. A(Mn  0,C   6,H  27)          111.2367         0.354653   
     99. A(P   2,B   7,H  52)          109.6930         0.320316   
    100. A(P   1,B   7,H  51)          109.6632         0.322386   
    101. A(P   1,B   7,H  52)          110.1993         0.325601   
    102. A(P   2,B   7,H  51)          108.6960         0.317173   
    103. A(H  51,B   7,H  52)          102.9768         0.261274   
    104. A(P   1,B   7,P   2)          114.9293         0.402372   
    105. A(P   2,C   8,H  19)          101.9080         0.345517   
    106. A(H  36,C   8,H  37)          105.9920         0.300825   
    107. A(P   2,C   8,H  37)          116.8965         0.367673   
    108. A(P   2,C   8,H  36)          113.0861         0.355649   
    109. A(H  19,C   8,H  37)          111.7572         0.292776   
    110. A(H  19,C   8,H  36)          106.8883         0.283984   
    111. A(H  39,C   9,H  49)          107.7442         0.301461   
    112. A(H  38,C   9,H  49)          106.5043         0.300285   
    113. A(P   2,C   9,H  49)          108.8950         0.365574   
    114. A(H  38,C   9,H  39)          104.6255         0.295670   
    115. A(P   2,C   9,H  39)          114.9066         0.359533   
    116. A(P   2,C   9,H  38)          113.6833         0.358035   
    117. A(P   1,C  10,H  33)          110.1037         0.357657   
    118. A(P   1,C  10,H  32)          112.1619         0.364597   
    119. A(H  33,C  10,H  48)          109.9193         0.304488   
    120. A(H  32,C  10,H  48)          111.4996         0.310054   
    121. A(P   1,C  10,H  48)          102.9555         0.361543   
    122. A(H  32,C  10,H  33)          110.0085         0.306903   
    123. A(P   1,C  11,H  20)          102.5116         0.368846   
    124. A(H  34,C  11,H  35)          109.3167         0.309553   
    125. A(H  20,C  11,H  35)          108.1340         0.316883   
    126. A(P   1,C  11,H  35)          116.7106         0.369156   
    127. A(H  20,C  11,H  34)          105.2208         0.309309   
    128. A(P   1,C  11,H  34)          113.9324         0.359845   
    129. A(H  28,C  12,H  29)           99.1387         0.282034   
    130. A(P   3,C  12,H  29)          108.2978         0.358665   
    131. A(Mn  0,C  12,H  29)          111.0090         0.339003   
    132. A(P   3,C  12,H  28)          111.3044         0.368165   
    133. A(Mn  0,C  12,H  28)          114.1963         0.347811   
    134. A(Mn  0,C  12,P   3)          112.0590         0.450553   
    135. A(H  30,C  13,H  31)          103.8909         0.295054   
    136. A(P   4,C  13,H  31)          110.2732         0.373482   
    137. A(Mn  0,C  13,H  31)          107.6775         0.339584   
    138. A(P   4,C  13,H  30)          112.3690         0.384586   
    139. A(Mn  0,C  13,H  30)          109.5548         0.349365   
    140. A(Mn  0,C  13,P   4)          112.6215         0.448465   
    141. A(H  53,B  14,H  54)          107.7476         0.274018   
    142. A(P   4,B  14,H  54)          111.3095         0.330600   
    143. A(P   3,B  14,H  54)          104.1170         0.325191   
    144. A(P   4,B  14,H  53)          112.9930         0.337873   
    145. A(P   3,B  14,H  53)          104.9148         0.332301   
    146. A(P   3,B  14,P   4)          115.0670         0.406707   
    147. A(H  40,C  15,H  41)          104.0986         0.294867   
    148. A(H  21,C  15,H  41)          109.1828         0.288990   
    149. A(P   3,C  15,H  41)          113.3686         0.356162   
    150. A(H  21,C  15,H  40)          109.4558         0.289678   
    151. A(P   3,C  15,H  40)          113.6831         0.357080   
    152. A(P   3,C  15,H  21)          106.9837         0.349427   
    153. A(H  42,C  16,H  43)          108.7166         0.305148   
    154. A(H  22,C  16,H  43)          104.8511         0.302490   
    155. A(P   3,C  16,H  43)          106.9146         0.367106   
    156. A(H  22,C  16,H  42)          104.8240         0.301106   
    157. A(P   3,C  16,H  42)          106.6802         0.365303   
    158. A(P   3,C  16,H  22)          124.1990         0.361905   
    159. A(H  44,C  17,H  45)          106.7287         0.300874   
    160. A(H  23,C  17,H  45)          106.9486         0.288730   
    161. A(P   4,C  17,H  45)          116.1736         0.348140   
    162. A(H  23,C  17,H  44)          113.6788         0.306154   
    163. A(P   4,C  17,H  44)          121.9820         0.370746   
    164. A(P   4,C  17,H  23)           89.6309         0.354597   
    165. A(H  47,C  18,H  50)          108.4062         0.302252   
    166. A(H  46,C  18,H  50)          111.4373         0.307972   
    167. A(P   4,C  18,H  50)          111.8538         0.362144   
    168. A(H  46,C  18,H  47)          107.0405         0.302578   
    169. A(P   4,C  18,H  47)          108.1954         0.355415   
    170. A(P   4,C  18,H  46)          109.7267         0.362562   
    171. D(H  24,C   5,Mn  0,C   6)   -173.7268         0.001880   
    172. D(H  24,C   5,P   1,C  11)     52.7648         0.004949   
    173. D(H  24,C   5,Mn  0,C  13)     72.2734         0.001880   
    174. D(P   1,C   5,Mn  0,C  12)     77.4596         0.001880   
    175. D(Mn  0,C   5,P   1,B   7)     53.0105         0.004949   
    176. D(Mn  0,C   5,P   1,C  11)    -72.8494         0.004949   
    177. D(H  24,C   5,P   1,B   7)    178.6247         0.004949   
    178. D(H  24,C   5,Mn  0,C  12)    -45.9763         0.001880   
    179. D(H  24,C   5,P   1,C  10)    -59.2267         0.004949   
    180. D(P   1,C   5,Mn  0,C  13)   -164.2908         0.001880   
    181. D(P   1,C   5,Mn  0,C   6)    -50.2909         0.001880   
    182. D(Mn  0,C   5,P   1,C  10)    175.1591         0.004949   
    183. D(P   2,C   6,Mn  0,C  12)    -69.9048         0.001894   
    184. D(P   2,C   6,Mn  0,C   5)     55.2868         0.001894   
    185. D(P   2,C   6,Mn  0,C  13)    177.2022         0.001894   
    186. D(H  26,C   6,P   2,C   8)   -170.0932         0.006988   
    187. D(Mn  0,C   6,P   2,B   7)    -60.0793         0.006988   
    188. D(Mn  0,C   6,P   2,C   9)    178.4784         0.006988   
    189. D(H  26,C   6,Mn  0,C  13)     55.7102         0.001894   
    190. D(H  26,C   6,Mn  0,C  12)    168.6033         0.001894   
    191. D(H  26,C   6,P   2,B   7)     62.3630         0.006988   
    192. D(H  26,C   6,P   2,C   9)    -59.0794         0.006988   
    193. D(H  26,C   6,Mn  0,C   5)    -66.2052         0.001894   
    194. D(Mn  0,C   6,P   2,C   8)     67.4645         0.006988   
    195. D(P   1,B   7,P   2,C   6)     58.0861         0.002749   
    196. D(H  51,B   7,P   1,C  11)    -55.5645         0.003029   
    197. D(P   2,B   7,P   1,C  11)     67.2184         0.003029   
    198. D(P   2,B   7,P   1,C   5)    -54.5821         0.003029   
    199. D(P   2,B   7,P   1,C  10)    179.1602         0.003029   
    200. D(H  51,B   7,P   1,C   5)   -177.3650         0.003029   
    201. D(H  51,B   7,P   2,C   9)    -52.6850         0.002749   
    202. D(H  51,B   7,P   2,C   8)     58.6814         0.002749   
    203. D(H  51,B   7,P   2,C   6)   -178.6138         0.002749   
    204. D(H  51,B   7,P   1,C  10)     56.3772         0.003029   
    205. D(P   1,B   7,P   2,C   9)   -175.9851         0.002749   
    206. D(P   1,B   7,P   2,C   8)    -64.6187         0.002749   
    207. D(H  36,C   8,P   2,C   9)    -59.8040         0.004459   
    208. D(H  36,C   8,P   2,C   6)     60.2239         0.004459   
    209. D(H  19,C   8,P   2,C   9)     54.5662         0.004459   
    210. D(H  19,C   8,P   2,B   7)    -59.9243         0.004459   
    211. D(H  36,C   8,P   2,B   7)   -174.2945         0.004459   
    212. D(H  19,C   8,P   2,C   6)    174.5941         0.004459   
    213. D(H  39,C   9,P   2,C   8)    -46.9454         0.004512   
    214. D(H  39,C   9,P   2,C   6)   -161.3412         0.004512   
    215. D(H  38,C   9,P   2,C   8)     73.5625         0.004512   
    216. D(H  39,C   9,P   2,B   7)     74.1738         0.004512   
    217. D(H  38,C   9,P   2,B   7)   -165.3182         0.004512   
    218. D(H  38,C   9,P   2,C   6)    -40.8333         0.004512   
    219. D(H  33,C  10,P   1,C  11)    -47.5317         0.004058   
    220. D(H  33,C  10,P   1,B   7)   -166.7628         0.004058   
    221. D(H  33,C  10,P   1,C   5)     66.2911         0.004058   
    222. D(H  32,C  10,P   1,B   7)    -43.9080         0.004058   
    223. D(H  32,C  10,P   1,C  11)     75.3232         0.004058   
    224. D(H  32,C  10,P   1,C   5)   -170.8541         0.004058   
    225. D(H  34,C  11,P   1,C  10)   -166.5117         0.004207   
    226. D(H  34,C  11,P   1,B   7)    -52.6624         0.004207   
    227. D(H  34,C  11,P   1,C   5)     74.0360         0.004207   
    228. D(H  20,C  11,P   1,C  10)    -53.3886         0.004207   
    229. D(H  20,C  11,P   1,B   7)     60.4607         0.004207   
    230. D(H  20,C  11,P   1,C   5)   -172.8409         0.004207   
    231. D(P   3,C  12,Mn  0,C  13)    -52.4030         0.001921   
    232. D(P   3,C  12,Mn  0,C   6)   -166.7771         0.001921   
    233. D(P   3,C  12,Mn  0,C   5)     73.5710         0.001921   
    234. D(H  28,C  12,P   3,C  16)    -50.7315         0.006311   
    235. D(H  28,C  12,P   3,B  14)   -173.3871         0.006311   
    236. D(Mn  0,C  12,P   3,C  16)   -179.9812         0.006311   
    237. D(Mn  0,C  12,P   3,C  15)    -67.6218         0.006311   
    238. D(Mn  0,C  12,P   3,B  14)     57.3632         0.006311   
    239. D(H  28,C  12,Mn  0,C  13)    179.8728         0.001921   
    240. D(H  28,C  12,P   3,C  15)     61.6279         0.006311   
    241. D(H  28,C  12,Mn  0,C   6)     65.4987         0.001921   
    242. D(H  28,C  12,Mn  0,C   5)    -54.1531         0.001921   
    243. D(H  30,C  13,P   4,C  18)    -50.9072         0.007435   
    244. D(H  30,C  13,P   4,C  17)   -164.3830         0.007435   
    245. D(H  30,C  13,P   4,B  14)     71.4328         0.007435   
    246. D(Mn  0,C  13,P   4,C  18)   -175.2122         0.007435   
    247. D(Mn  0,C  13,P   4,C  17)     71.3120         0.007435   
    248. D(Mn  0,C  13,P   4,B  14)    -52.8722         0.007435   
    249. D(H  30,C  13,Mn  0,C  12)    -76.0714         0.001829   
    250. D(H  30,C  13,Mn  0,C   6)     47.0916         0.001829   
    251. D(H  30,C  13,Mn  0,C   5)    159.7547         0.001829   
    252. D(P   4,C  13,Mn  0,C  12)     49.7693         0.001829   
    253. D(P   4,C  13,Mn  0,C   6)    172.9324         0.001829   
    254. D(P   4,C  13,Mn  0,C   5)    -74.4046         0.001829   
    255. D(H  53,B  14,P   4,C  18)    -59.6955         0.003127   
    256. D(H  53,B  14,P   4,C  13)    173.7484         0.003127   
    257. D(P   3,B  14,P   4,C  18)    179.8309         0.003127   
    258. D(P   3,B  14,P   4,C  17)    -68.7502         0.003127   
    259. D(P   3,B  14,P   4,C  13)     53.2749         0.003127   
    260. D(H  53,B  14,P   3,C  16)     52.5276         0.002828   
    261. D(H  53,B  14,P   3,C  15)    -58.0327         0.002828   
    262. D(H  53,B  14,P   3,C  12)   -179.9079         0.002828   
    263. D(P   4,B  14,P   3,C  16)    177.3375         0.002828   
    264. D(H  53,B  14,P   4,C  17)     51.7234         0.003127   
    265. D(P   4,B  14,P   3,C  15)     66.7771         0.002828   
    266. D(P   4,B  14,P   3,C  12)    -55.0981         0.002828   
    267. D(H  40,C  15,P   3,C  16)     -7.6846         0.004349   
    268. D(H  40,C  15,P   3,B  14)    105.5751         0.004349   
    269. D(H  40,C  15,P   3,C  12)   -128.9957         0.004349   
    270. D(H  21,C  15,P   3,C  16)    113.2634         0.004349   
    271. D(H  21,C  15,P   3,B  14)   -133.4769         0.004349   
    272. D(H  21,C  15,P   3,C  12)     -8.0478         0.004349   
    273. D(H  42,C  16,P   3,C  15)    -90.1166         0.004644   
    274. D(H  42,C  16,P   3,B  14)    151.7902         0.004644   
    275. D(H  42,C  16,P   3,C  12)     25.3071         0.004644   
    276. D(H  22,C  16,P   3,C  15)     31.6562         0.004644   
    277. D(H  22,C  16,P   3,B  14)    -86.4370         0.004644   
    278. D(H  22,C  16,P   3,C  12)    147.0799         0.004644   
    279. D(H  44,C  17,P   4,C  18)   -141.0247         0.004227   
    280. D(H  44,C  17,P   4,B  14)    106.3561         0.004227   
    281. D(H  44,C  17,P   4,C  13)    -20.8726         0.004227   
    282. D(H  23,C  17,P   4,C  18)    -23.0253         0.004227   
    283. D(H  23,C  17,P   4,B  14)   -135.6445         0.004227   
    284. D(H  23,C  17,P   4,C  13)     97.1268         0.004227   
    285. D(H  47,C  18,P   4,C  17)    -63.9248         0.004108   
    286. D(H  47,C  18,P   4,B  14)     52.6445         0.004108   
    287. D(H  47,C  18,P   4,C  13)   -179.3495         0.004108   
    288. D(H  46,C  18,P   4,C  17)     52.5348         0.004108   
    289. D(H  46,C  18,P   4,B  14)    169.1041         0.004108   
    290. D(H  46,C  18,P   4,C  13)    -62.8899         0.004108   
    -----------------------------------------------------------------

Number of atoms                         .... 55
Number of degrees of freedom            .... 290


         *************************************************************
         *                GEOMETRY OPTIMIZATION CYCLE   1            *
         *************************************************************
---------------------------------
CARTESIAN COORDINATES (ANGSTROEM)
---------------------------------
  Mn     5.438400    1.326900    2.711800
  P      6.606500   -1.582300    3.828400
  P      4.348700    0.030500    5.524900
  P      7.974600    3.302300    1.993900
  P      5.588800    2.952400   -0.171300
  C      6.269000   -0.699700    2.308000
  C      3.789900    0.902900    4.140100
  B      5.130100   -1.681600    5.044300
  C      5.429800    1.151200    6.448100
  C      3.072200   -0.316000    6.757400
  C      7.159400   -3.306800    3.569100
  C      8.082600   -0.790000    4.544600
  C      6.970100    2.798900    3.331100
  C      4.453700    2.358800    0.975500
  B      6.974500    4.063000    0.523500
  C      8.962700    1.862200    1.499000
  C      9.254700    4.503100    2.403200
  C      6.284400    1.501000   -1.023100
  C      4.825900    3.916200   -1.522800
  H      5.661000    0.541700    7.376100
  H      8.300900   -1.399500    5.329800
  H      8.788800    1.072200    2.260400
  H     10.209300    4.548300    1.927300
  H      5.581800    1.647800   -1.832100
  H      7.185400   -0.677200    1.689400
  H      5.610900   -1.320500    1.665600
  H      3.017000    0.338600    3.664200
  H      3.333900    1.794500    4.473200
  H      7.576400    2.482900    4.187700
  H      6.487100    3.724400    3.783200
  H      3.811100    3.114900    1.332500
  H      3.773100    1.636500    0.499700
  H      7.201800   -3.837200    4.449400
  H      8.105700   -3.318100    3.093200
  H      7.895200    0.158000    4.972900
  H      8.904800   -0.733600    3.949800
  H      4.923400    2.054100    6.781200
  H      6.292200    1.467200    5.972200
  H      2.395500    0.507900    6.924000
  H      3.441900   -0.564300    7.733000
  H     10.017000    2.065300    1.427600
  H      8.702000    1.478500    0.523500
  H      9.469400    4.379000    3.426300
  H      8.839100    5.451100    2.260400
  H      6.250000    0.575600   -0.618600
  H      7.302100    1.625200   -1.451400
  H      4.184900    3.306800   -2.070100
  H      5.603900    4.232300   -2.189000
  H      6.434300   -3.690500    2.926600
  H      2.488400   -1.117300    6.424300
  H      4.334300    4.762700   -1.165900
  H      5.485400   -2.268500    6.091200
  H      4.254600   -2.426500    4.592200
  H      7.789800    4.345100   -0.285500
  H      6.525000    5.101300    0.975500

----------------------------
CARTESIAN COORDINATES (A.U.)
----------------------------
  NO LB      ZA    FRAG     MASS         X           Y           Z
   0 Mn   25.0000    0    54.940   10.277087    2.507478    5.124559
   1 P    15.0000    0    30.974   12.484476   -2.990114    7.234628
   2 P    15.0000    0    30.974    8.217852    0.057637   10.440548
   3 P    15.0000    0    30.974   15.069810    6.240443    3.767925
   4 P    15.0000    0    30.974   10.561301    5.579227   -0.323710
   5 C     6.0000    0    12.011   11.846693   -1.322241    4.361488
   6 C     6.0000    0    12.011    7.161873    1.706234    7.823655
   7 B     5.0000    0    10.810    9.694484   -3.177763    9.532346
   8 C     6.0000    0    12.011   10.260835    2.175453   12.185143
   9 C     6.0000    0    12.011    5.805617   -0.597153   12.769635
  10 C     6.0000    0    12.011   13.529305   -6.248946    6.744622
  11 C     6.0000    0    12.011   15.273900   -1.492884    8.588049
  12 C     6.0000    0    12.011   13.171580    5.289154    6.294867
  13 C     6.0000    0    12.011    8.416273    4.457486    1.843428
  14 B     5.0000    0    10.810   13.179895    7.677957    0.989272
  15 C     6.0000    0    12.011   16.937048    3.519048    2.832699
  16 C     6.0000    0    12.011   17.488848    8.509626    4.541390
  17 C     6.0000    0    12.011   11.875795    2.836479   -1.933379
  18 C     6.0000    0    12.011    9.119629    7.400545   -2.877675
  19 H     1.0000    0     1.008   10.697740    1.023665   13.938809
  20 H     1.0000    0     1.008   15.686428   -2.644672   10.071862
  21 H     1.0000    0     1.008   16.608425    2.026164    4.271537
  22 H     1.0000    0     1.008   19.292781    8.595041    3.642069
  23 H     1.0000    0     1.008   10.548073    3.113891   -3.462167
  24 H     1.0000    0     1.008   13.578438   -1.279723    3.192503
  25 H     1.0000    0     1.008   10.603064   -2.495383    3.147528
  26 H     1.0000    0     1.008    5.701304    0.639861    6.924334
  27 H     1.0000    0     1.008    6.300158    3.391114    8.453123
  28 H     1.0000    0     1.008   14.317321    4.692001    7.913606
  29 H     1.0000    0     1.008   12.258842    7.038096    7.149212
  30 H     1.0000    0     1.008    7.201935    5.886308    2.518060
  31 H     1.0000    0     1.008    7.130126    3.092537    0.944296
  32 H     1.0000    0     1.008   13.609430   -7.251257    8.408147
  33 H     1.0000    0     1.008   15.317553   -6.270300    5.845301
  34 H     1.0000    0     1.008   14.919766    0.298577    9.397419
  35 H     1.0000    0     1.008   16.827633   -1.386303    7.464040
  36 H     1.0000    0     1.008    9.303878    3.881686   12.814611
  37 H     1.0000    0     1.008   11.890535    2.772606   11.285822
  38 H     1.0000    0     1.008    4.526839    0.959792   13.084464
  39 H     1.0000    0     1.008    6.504248   -1.066372   14.613252
  40 H     1.0000    0     1.008   18.929387    3.902851    2.697773
  41 H     1.0000    0     1.008   16.444397    2.793960    0.989272
  42 H     1.0000    0     1.008   17.894573    8.275111    6.474769
  43 H     1.0000    0     1.008   16.703478   10.301086    4.271537
  44 H     1.0000    0     1.008   11.810788    1.087726   -1.168985
  45 H     1.0000    0     1.008   13.798969    3.071183   -2.742749
  46 H     1.0000    0     1.008    7.908315    6.248946   -3.911922
  47 H     1.0000    0     1.008   10.589836    7.997888   -4.136611
  48 H     1.0000    0     1.008   12.159065   -6.974034    5.530473
  49 H     1.0000    0     1.008    4.702395   -2.111391   12.140168
  50 H     1.0000    0     1.008    8.190640    9.000199   -2.203232
  51 H     1.0000    0     1.008   10.365904   -4.286844   11.510700
  52 H     1.0000    0     1.008    8.040029   -4.585420    8.678000
  53 H     1.0000    0     1.008   14.720589    8.211049   -0.539517
  54 H     1.0000    0     1.008   12.330463    9.640060    1.843428

--------------------------------
INTERNAL COORDINATES (ANGSTROEM)
--------------------------------
 Mn     0   0   0     0.000000000000     0.00000000     0.00000000
 P      1   0   0     3.327866855810     0.00000000     0.00000000
 P      2   1   0     3.252214158078    59.85615584     0.00000000
 P      1   2   3     3.293918033285   109.09465896   129.07475621
 P      4   1   2     3.240765756731    60.92382954   131.49240134
 C      2   1   3     1.790113172400    38.54056312   148.71036407
 C      3   2   1     1.729453740347    93.25490280    23.03372337
 B      2   1   3     1.915210239112    89.29856610    15.19120331
 C      3   2   1     1.810260738126    99.11609921   275.43670091
 C      3   2   1     1.807918900283   138.65492033   156.89996879
 C      2   1   3     1.829435746344   151.95460651   139.24829759
 C      2   1   3     1.821964033674    92.06976055   261.77685142
 C      4   1   2     1.746578269074    38.50650478   274.97119084
 C      5   4   1     1.719291484886    94.45472737    19.16837532
 B      5   4   1     1.906920000944    32.72493694   152.88219760
 C      4   1   2     1.815256353797    90.15843846    32.83343238
 C      4   1   2     1.802249466639   153.76227748   275.00960199
 C      5   4   1     1.820984502954    96.73989495   271.64340785
 C      5   4   1     1.826876870509   138.13594116   152.63787300
 H      9   3   2     1.134075698532   101.90803479   270.82375580
 H     12   2   1     1.017685698042   102.51160219   150.59290157
 H     16   4   1     1.110887559567   106.98367881   316.80227765
 H     17   4   1     1.067607142164   124.19900158   147.05345562
 H     18   5   4     1.081516527844    89.63087345   193.86756499
 H      6   2   1     1.105875747993   109.20166934   125.61416404
 H      6   2   1     1.109579204023   109.12905651   234.36402556
 H      7   3   2     1.068779542282   108.89662591    89.36600288
 H      7   3   2     1.055387213301   108.24231858   204.06826227
 H     13   4   1     1.096001482663   111.30440257   129.24969470
 H     13   4   1     1.137643907381   108.29777967   237.21898300
 H     14   5   4     1.054547756150   112.36899272    97.19367441
 H     14   5   4     1.100599513901   110.27318812   212.58299784
 H     11   2   1     1.028615579310   112.16187220   195.56682913
 H     11   2   1     1.059288530099   110.10373914    72.71199108
 H     12   2   1     1.057006929968   113.93236535    37.46981924
 H     12   2   1     1.016356650000   116.71060086   268.53353378
 H      9   3   2     1.087485622893   113.08611971   156.45356472
 H      9   3   2     1.034442154013   116.89647278    32.94717095
 H     10   3   2     1.079115220910   113.68330891   191.43703849
 H     10   3   2     1.072439434187   114.90656489    70.92911780
 H     16   4   1     1.076055788517   113.68314825   195.85433015
 H     16   4   1     1.080180739506   113.36861348    77.21569842
 H     17   4   1     1.052725277553   106.68018519    25.28064923
 H     17   4   1     1.044901526461   106.91457104   269.09697496
 H     18   5   4     1.010528955548   121.98196999    75.86816999
 H     18   5   4     1.111116474543   116.17361747   302.63091009
 H     19   5   4     1.040089731706   109.72674850   169.24109313
 H     19   5   4     1.071926140179   108.19544088    52.78149501
 H     11   2   1     1.042018210014   102.95551432   315.55166791
 H     10   3   2     1.045877497607   108.89495120   309.99276992
 H     19   5   4     1.041926302576   111.85382783   293.44531828
 H      8   2   1     1.251674602283   109.66315427   212.48369931
 H      8   2   1     1.235220899273   110.19932302    99.80545189
 H     15   5   4     1.182698397733   112.99304440   120.47358684
 H     15   5   4     1.218368228410   111.30954716   241.86989317

---------------------------
INTERNAL COORDINATES (A.U.)
---------------------------
 Mn     0   0   0     0.000000000000     0.00000000     0.00000000
 P      1   0   0     6.288756967635     0.00000000     0.00000000
 P      2   1   0     6.145794087628    59.85615584     0.00000000
 P      1   2   3     6.224602990493   109.09465896   129.07475621
 P      4   1   2     6.124159744412    60.92382954   131.49240134
 C      2   1   3     3.382823644561    38.54056312   148.71036407
 C      3   2   1     3.268193930541    93.25490280    23.03372337
 B      2   1   3     3.619222840804    89.29856610    15.19120331
 C      3   2   1     3.420897026048    99.11609921   275.43670091
 C      3   2   1     3.416471593875   138.65492033   156.89996879
 C      2   1   3     3.457132540195   151.95460651   139.24829759
 C      2   1   3     3.443013049497    92.06976055   261.77685142
 C      4   1   2     3.300554600007    38.50650478   274.97119084
 C      5   4   1     3.248990050817    94.45472737    19.16837532
 B      5   4   1     3.603556561081    32.72493694   152.88219760
 C      4   1   2     3.430337371537    90.15843846    32.83343238
 C      4   1   2     3.405757916953   153.76227748   275.00960199
 C      5   4   1     3.441162004698    96.73989495   271.64340785
 C      5   4   1     3.452296965657   138.13594116   152.63787300
 H      9   3   2     2.143092485360   101.90803479   270.82375580
 H     12   2   1     1.923147259709   102.51160219   150.59290157
 H     16   4   1     2.099273253161   106.98367881   316.80227765
 H     17   4   1     2.017485117309   124.19900158   147.05345562
 H     18   5   4     2.043770046935    89.63087345   193.86756499
 H      6   2   1     2.089802301853   109.20166934   125.61416404
 H      6   2   1     2.096800819498   109.12905651   234.36402556
 H      7   3   2     2.019700632450   108.89662591    89.36600288
 H      7   3   2     1.994392798382   108.24231858   204.06826227
 H     13   4   1     2.071142644605   111.30440257   129.24969470
 H     13   4   1     2.149835422873   108.29777967   237.21898300
 H     14   5   4     1.992806454264   112.36899272    97.19367441
 H     14   5   4     2.079831664401   110.27318812   212.58299784
 H     11   2   1     1.943801741981   112.16187220   195.56682913
 H     11   2   1     2.001765218692   110.10373914    72.71199108
 H     12   2   1     1.997453619296   113.93236535    37.46981924
 H     12   2   1     1.920635722890   116.71060086   268.53353378
 H      9   3   2     2.055050001845   113.08611971   156.45356472
 H      9   3   2     1.954812372469   116.89647278    32.94717095
 H     10   3   2     2.039232234466   113.68330891   191.43703849
 H     10   3   2     2.026616825831   114.90656489    70.92911780
 H     16   4   1     2.033450745117   113.68314825   195.85433015
 H     16   4   1     2.041245772803   113.36861348    77.21569842
 H     17   4   1     1.989362468832   106.68018519    25.28064923
 H     17   4   1     1.974577721927   106.91457104   269.09697496
 H     18   5   4     1.909622976382   121.98196999    75.86816999
 H     18   5   4     2.099705839774   116.17361747   302.63091009
 H     19   5   4     1.965484747628   109.72674850   169.24109313
 H     19   5   4     2.025646840730   108.19544088    52.78149501
 H     11   2   1     1.969129043485   102.95551432   315.55166791
 H     10   3   2     1.976422040107   108.89495120   309.99276992
 H     19   5   4     1.968955363598   111.85382783   293.44531828
 H      8   2   1     2.365322207099   109.66315427   212.48369931
 H      8   2   1     2.334229214521   110.19932302    99.80545189
 H     15   5   4     2.234976070743   112.99304440   120.47358684
 H     15   5   4     2.302382281967   111.30954716   241.86989317

---------------------
BASIS SET INFORMATION
---------------------
There are 5 groups of distinct atoms

 Group   1 Type Mn  : 17s11p7d1f contracted to 6s4p4d1f pattern {842111/6311/4111/1}
 Group   2 Type P   : 14s9p3d1f contracted to 5s5p2d1f pattern {73211/51111/21/1}
 Group   3 Type C   : 11s6p2d1f contracted to 5s3p2d1f pattern {62111/411/11/1}
 Group   4 Type B   : 11s6p2d1f contracted to 5s3p2d1f pattern {62111/411/11/1}
 Group   5 Type H   : 5s1p contracted to 3s1p pattern {311/1}

Atom   0Mn   basis set group =>   1
Atom   1P    basis set group =>   2
Atom   2P    basis set group =>   2
Atom   3P    basis set group =>   2
Atom   4P    basis set group =>   2
Atom   5C    basis set group =>   3
Atom   6C    basis set group =>   3
Atom   7B    basis set group =>   4
Atom   8C    basis set group =>   3
Atom   9C    basis set group =>   3
Atom  10C    basis set group =>   3
Atom  11C    basis set group =>   3
Atom  12C    basis set group =>   3
Atom  13C    basis set group =>   3
Atom  14B    basis set group =>   4
Atom  15C    basis set group =>   3
Atom  16C    basis set group =>   3
Atom  17C    basis set group =>   3
Atom  18C    basis set group =>   3
Atom  19H    basis set group =>   5
Atom  20H    basis set group =>   5
Atom  21H    basis set group =>   5
Atom  22H    basis set group =>   5
Atom  23H    basis set group =>   5
Atom  24H    basis set group =>   5
Atom  25H    basis set group =>   5
Atom  26H    basis set group =>   5
Atom  27H    basis set group =>   5
Atom  28H    basis set group =>   5
Atom  29H    basis set group =>   5
Atom  30H    basis set group =>   5
Atom  31H    basis set group =>   5
Atom  32H    basis set group =>   5
Atom  33H    basis set group =>   5
Atom  34H    basis set group =>   5
Atom  35H    basis set group =>   5
Atom  36H    basis set group =>   5
Atom  37H    basis set group =>   5
Atom  38H    basis set group =>   5
Atom  39H    basis set group =>   5
Atom  40H    basis set group =>   5
Atom  41H    basis set group =>   5
Atom  42H    basis set group =>   5
Atom  43H    basis set group =>   5
Atom  44H    basis set group =>   5
Atom  45H    basis set group =>   5
Atom  46H    basis set group =>   5
Atom  47H    basis set group =>   5
Atom  48H    basis set group =>   5
Atom  49H    basis set group =>   5
Atom  50H    basis set group =>   5
Atom  51H    basis set group =>   5
Atom  52H    basis set group =>   5
Atom  53H    basis set group =>   5
Atom  54H    basis set group =>   5
---------------------------------
AUXILIARY/J BASIS SET INFORMATION
---------------------------------
There are 5 groups of distinct atoms

 Group   1 Type Mn  : 19s5p5d3f3g contracted to 8s5p5d2f3g pattern {121111111/11111/11111/21/111}
 Group   2 Type P   : 14s5p5d2f1g contracted to 8s4p3d1f1g pattern {71111111/2111/311/2/1}
 Group   3 Type C   : 12s5p4d2f1g contracted to 6s4p3d1f1g pattern {711111/2111/211/2/1}
 Group   4 Type B   : 12s5p4d2f1g contracted to 6s4p3d1f1g pattern {711111/2111/211/2/1}
 Group   5 Type H   : 5s2p1d contracted to 3s1p1d pattern {311/2/1}

Atom   0Mn   basis set group =>   1
Atom   1P    basis set group =>   2
Atom   2P    basis set group =>   2
Atom   3P    basis set group =>   2
Atom   4P    basis set group =>   2
Atom   5C    basis set group =>   3
Atom   6C    basis set group =>   3
Atom   7B    basis set group =>   4
Atom   8C    basis set group =>   3
Atom   9C    basis set group =>   3
Atom  10C    basis set group =>   3
Atom  11C    basis set group =>   3
Atom  12C    basis set group =>   3
Atom  13C    basis set group =>   3
Atom  14B    basis set group =>   4
Atom  15C    basis set group =>   3
Atom  16C    basis set group =>   3
Atom  17C    basis set group =>   3
Atom  18C    basis set group =>   3
Atom  19H    basis set group =>   5
Atom  20H    basis set group =>   5
Atom  21H    basis set group =>   5
Atom  22H    basis set group =>   5
Atom  23H    basis set group =>   5
Atom  24H    basis set group =>   5
Atom  25H    basis set group =>   5
Atom  26H    basis set group =>   5
Atom  27H    basis set group =>   5
Atom  28H    basis set group =>   5
Atom  29H    basis set group =>   5
Atom  30H    basis set group =>   5
Atom  31H    basis set group =>   5
Atom  32H    basis set group =>   5
Atom  33H    basis set group =>   5
Atom  34H    basis set group =>   5
Atom  35H    basis set group =>   5
Atom  36H    basis set group =>   5
Atom  37H    basis set group =>   5
Atom  38H    basis set group =>   5
Atom  39H    basis set group =>   5
Atom  40H    basis set group =>   5
Atom  41H    basis set group =>   5
Atom  42H    basis set group =>   5
Atom  43H    basis set group =>   5
Atom  44H    basis set group =>   5
Atom  45H    basis set group =>   5
Atom  46H    basis set group =>   5
Atom  47H    basis set group =>   5
Atom  48H    basis set group =>   5
Atom  49H    basis set group =>   5
Atom  50H    basis set group =>   5
Atom  51H    basis set group =>   5
Atom  52H    basis set group =>   5
Atom  53H    basis set group =>   5
Atom  54H    basis set group =>   5


           ************************************************************
           *        Program running with 16 parallel MPI-processes    *
           *              working on a common directory               *
           ************************************************************
------------------------------------------------------------------------------
                             ORCA STARTUP CALCULATIONS
                           -- RI-GTO INTEGRALS CHOSEN --
------------------------------------------------------------------------------
------------------------------------------------------------------------------
                   ___                                                        
                  /   \      - P O W E R E D   B Y -                         
                 /     \                                                     
                 |  |  |   _    _      __       _____    __    __             
                 |  |  |  | |  | |    /  \     |  _  \  |  |  /  |          
                  \  \/   | |  | |   /    \    | | | |  |  | /  /          
                 / \  \   | |__| |  /  /\  \   | |_| |  |  |/  /          
                |  |  |   |  __  | /  /__\  \  |    /   |      \           
                |  |  |   | |  | | |   __   |  |    \   |  |\   \          
                \     /   | |  | | |  |  |  |  | |\  \  |  | \   \       
                 \___/    |_|  |_| |__|  |__|  |_| \__\ |__|  \__/        
                                                                              
                      - O R C A' S   B I G   F R I E N D -                    
                                      &                                       
                       - I N T E G R A L  F E E D E R -                       
                                                                              
 v1 FN, 2020, v2 2021, v3 2022-2024                                           
------------------------------------------------------------------------------


----------------------
SHARK INTEGRAL PACKAGE
----------------------

Number of atoms                             ...     55
Number of basis functions                   ...    843
Number of shells                            ...    365
Maximum angular momentum                    ...      3
Integral batch strategy                     ... SHARK/LIBINT Hybrid
RI-J (if used) integral strategy            ... SPLIT-RIJ (Revised 2003 algorithm where possible)
Printlevel                                  ...      1
Contraction scheme used                     ... SEGMENTED contraction
Prescreening option                         ... SCHWARTZ
   Thresh                                   ... 2.500e-11
   Tcut                                     ... 2.500e-12
   Tpresel                                  ... 2.500e-12 
Coulomb Range Separation                    ... NOT USED
Exchange Range Separation                   ... NOT USED
Multipole approximations                    ... NOT USED
Finite Nucleus Model                        ... NOT USED
CABS basis                                  ... NOT available
Auxiliary Coulomb fitting basis             ... AVAILABLE
   # of basis functions in Aux-J            ...   1375
   # of shells in Aux-J                     ...    481
   Maximum angular momentum in Aux-J        ...      4
Auxiliary J/K fitting basis                 ... NOT available
Auxiliary Correlation fitting basis         ... NOT available
Auxiliary 'external' fitting basis          ... NOT available

Checking pre-screening integrals            ... done (  0.0 sec) Dimension = 365
Check shell pair data                       ... done (  0.0 sec)
Shell pair information
Shell pair cut-off parameter TPreSel        ...   2.5e-12
Total number of shell pairs                 ...     66795
Shell pairs after pre-screening             ...     46486
Total number of primitive shell pairs       ...    205739
Primitive shell pairs kept                  ...     93299
          la=0 lb=0:  14384 shell pairs
          la=1 lb=0:  14359 shell pairs
          la=1 lb=1:   3644 shell pairs
          la=2 lb=0:   5886 shell pairs
          la=2 lb=1:   2988 shell pairs
          la=2 lb=2:    655 shell pairs
          la=3 lb=0:   2583 shell pairs
          la=3 lb=1:   1296 shell pairs
          la=3 lb=2:    566 shell pairs
          la=3 lb=3:    125 shell pairs

Calculating one electron integrals          ... done (  0.1 sec)
done (  0.2 sec)
Calculating Nuclear repulsion               ... done (  0.0 sec) ENN=   2700.324364567246 Eh

Diagonalization of the overlap matrix:
Smallest eigenvalue                        ... 2.406e-04
Time for diagonalization                   ...    0.109 sec
Threshold for overlap eigenvalues          ... 1.000e-07
Number of eigenvalues below threshold      ... 0
Time for construction of square roots      ...    0.068 sec
Total time needed                          ...    0.195 sec

-------------------
DFT GRID GENERATION
-------------------

General Integration Accuracy     IntAcc      ... 4.959
Radial Grid Type                 RadialGrid  ... OptM3 with GC (2021)
Angular Grid (max. ang.)         AngularGrid ... 6 (Lebedev-590)
Angular grid pruning method      GridPruning ... 4 (adaptive)
Weight generation scheme         WeightScheme... mBecke (2022)
Basis function cutoff            BFCut       ... 1.0000e-11
Integration weight cutoff        WCut        ... 1.0000e-14
Partially contracted basis set               ... off
Rotationally invariant grid construction     ... off
Angular grids for H and He will be reduced by one unit
Core-polarized basis detected: some atoms will have their core
                               angular grid increased.

Total number of grid points                  ...   591158
Total number of batches                      ...     9264
Average number of points per batch           ...       63
Average number of grid points per atom       ...    10748

--------------------
COSX GRID GENERATION
--------------------

GRIDX 1
-------
General Integration Accuracy     IntAcc      ... 4.020
Radial Grid Type                 RadialGrid  ... OptM3 with GC (2021)
Angular Grid (max. ang.)         AngularGrid ... 2 (Lebedev-110)
Angular grid pruning method      GridPruning ... 4 (adaptive)
Weight generation scheme         WeightScheme... mBecke (2022)
Basis function cutoff            BFCut       ... 1.0000e-11
Integration weight cutoff        WCut        ... 1.0000e-14
Partially contracted basis set               ... on
Rotationally invariant grid construction     ... off
Angular grids for H and He will be reduced by one unit
Core-polarized basis detected: some atoms will have their core
                               angular grid increased.

Total number of grid points                  ...    63281
Total number of batches                      ...      521
Average number of points per batch           ...      121
Average number of grid points per atom       ...     1151
UseSFitting                                  ... on

GRIDX 2
-------
General Integration Accuracy     IntAcc      ... 4.338
Radial Grid Type                 RadialGrid  ... OptM3 with GC (2021)
Angular Grid (max. ang.)         AngularGrid ... 3 (Lebedev-194)
Angular grid pruning method      GridPruning ... 4 (adaptive)
Weight generation scheme         WeightScheme... mBecke (2022)
Basis function cutoff            BFCut       ... 1.0000e-11
Integration weight cutoff        WCut        ... 1.0000e-14
Partially contracted basis set               ... on
Rotationally invariant grid construction     ... off
Angular grids for H and He will be reduced by one unit
Core-polarized basis detected: some atoms will have their core
                               angular grid increased.

Total number of grid points                  ...   132609
Total number of batches                      ...     1062
Average number of points per batch           ...      124
Average number of grid points per atom       ...     2411
UseSFitting                                  ... on

GRIDX 3
-------
General Integration Accuracy     IntAcc      ... 4.871
Radial Grid Type                 RadialGrid  ... OptM3 with GC (2021)
Angular Grid (max. ang.)         AngularGrid ... 4 (Lebedev-302)
Angular grid pruning method      GridPruning ... 4 (adaptive)
Weight generation scheme         WeightScheme... mBecke (2022)
Basis function cutoff            BFCut       ... 1.0000e-11
Integration weight cutoff        WCut        ... 1.0000e-14
Partially contracted basis set               ... on
Rotationally invariant grid construction     ... off
Angular grids for H and He will be reduced by one unit
Core-polarized basis detected: some atoms will have their core
                               angular grid increased.

Total number of grid points                  ...   260002
Total number of batches                      ...     2059
Average number of points per batch           ...      126
Average number of grid points per atom       ...     4727
UseSFitting                                  ... on
Initializing property integral containers    ... done (  0.0 sec)

SHARK setup successfully completed in   8.0 seconds

Maximum memory used throughout the entire STARTUP-calculation: 189.2 MB


           ************************************************************
           *        Program running with 16 parallel MPI-processes    *
           *              working on a common directory               *
           ************************************************************
-------------------------------------------------------------------------------
                                 ORCA GUESS
                   Start orbitals & Density for SCF / CASSCF
-------------------------------------------------------------------------------

------------
SCF SETTINGS
------------
Hamiltonian:
 Density Functional     Method          .... DFT(GTOs)
 Exchange Functional    Exchange        .... PBE
   PBE kappa parameter   XKappa         ....  0.804000
   PBE mue parameter    XMuePBE         ....  0.219520
 Correlation Functional Correlation     .... PBE
   PBE beta parameter  CBetaPBE         ....  0.066725
 LDA part of GGA corr.  LDAOpt          .... PW91-LDA
 Gradients option       PostSCFGGA      .... off
 Hybrid DFT is turned on
   Fraction HF Exchange ScalHFX         ....  0.250000
   Scaling of DF-GGA-X  ScalDFX         ....  0.750000
   Scaling of DF-GGA-C  ScalDFC         ....  1.000000
   Scaling of DF-LDA-C  ScalLDAC        ....  1.000000
   Perturbative correction              ....  0.000000
   NL short-range parameter             ....  6.900000
 RI-approximation to the Coulomb term is turned on
   Number of AuxJ basis functions       .... 1375
   RIJ-COSX (HFX calculated with COS-X)).... on


General Settings:
 Integral files         IntName         .... BUSMOR-S6
 Hartree-Fock type      HFTyp           .... UHF
 Total Charge           Charge          ....    0
 Multiplicity           Mult            ....    2
 Number of Electrons    NEL             ....  203
 Basis Dimension        Dim             ....  843
 Nuclear Repulsion      ENuc            ....   2700.3243645672 Eh

Convergence Acceleration:
 AO-DIIS                CNVDIIS         .... on
   Start iteration      DIISMaxIt       ....    12
   Startup error        DIISStart       ....  0.200000
   # of expansion vecs  DIISMaxEq       ....     5
   Bias factor          DIISBfac        ....   1.050
   Max. coefficient     DIISMaxC        ....  10.000
 MO-DIIS                CNVKDIIS        .... off
 Trust-Rad. Augm. Hess. CNVTRAH         .... auto
   Auto Start mean grad. ratio tolernc. ....  1.125000
   Auto Start start iteration           ....    50
   Auto Start num. interpolation iter.  ....    10
   Max. Number of Micro iterations      ....    24
   Max. Number of Macro iterations      .... Maxiter - #DIIS iter
   Number of Davidson start vectors     ....     2
   Converg. threshold    (grad. norm)   ....   1.000e-05
   Grad. Scal. Fac. for Micro threshold ....   0.100
   Minimum threshold for Micro iter.    ....   1.000e-02
   NR start threshold (gradient norm)   ....   1.000e-04
   Initial trust radius                 ....   0.400
   Minimum AH scaling param. (alpha)    ....   1.000
   Maximum AH scaling param. (alpha)    .... 1000.000
   Quad. conv. algorithm                .... NR
   White noise on init. David. guess    .... on
   Maximum white noise                  ....   0.010
   Pseudo random numbers                .... off
   Inactive MOs                         .... canonical
   Orbital update algorithm             .... Taylor
   Preconditioner                       .... Diag
   Full preconditioner red. dimension   ....   250
 SOSCF                  CNVSOSCF        .... on
   Start iteration      SOSCFMaxIt      ....   150
   Startup grad/error   SOSCFStart      ....  0.003300
   Hessian update       SOSCFHessUp     .... L-BFGS
 Level Shifting         CNVShift        .... on
   Level shift para.    LevelShift      ....    0.2500
   Turn off err/grad.   ShiftErr        ....    0.0010
 Zerner damping         CNVZerner       .... off
 Static damping         CNVDamp         .... on
   Fraction old density DampFac         ....    0.7000
   Max. Damping (<1)    DampMax         ....    0.9800
   Min. Damping (>=0)   DampMin         ....    0.0000
   Turn off err/grad.   DampErr         ....    0.1000

SCF Procedure:
 Maximum # iterations   MaxIter         ....   125
 SCF integral mode      SCFMode         .... Direct
   Integral package                     .... SHARK and LIBINT hybrid scheme
 Reset frequency        DirectResetFreq ....    20
 Integral Threshold     Thresh          ....  2.500e-11 Eh
 Primitive CutOff       TCut            ....  2.500e-12 Eh

Convergence Tolerance:
 Convergence Check Mode ConvCheckMode   .... Total+1el-Energy
 Convergence forced     ConvForced      .... 0
 Energy Change          TolE            ....  1.000e-08 Eh
 1-El. energy change                    ....  1.000e-05 Eh
 Orbital Gradient       TolG            ....  1.000e-05
 Orbital Rotation angle TolX            ....  1.000e-05
 DIIS Error             TolErr          ....  5.000e-07

------------------------------
INITIAL GUESS: MODEL POTENTIAL
------------------------------
Loading Hartree-Fock densities                     ... done
Calculating cut-offs                               ... done
Initializing the effective Hamiltonian             ... done
Setting up the integral package (SHARK)            ... done
done (   0.3 sec)
Making the grid                                    ... done (   0.3 sec)
Mapping shells                                     ... done
Starting the XC term evaluation                    ... done (   0.2 sec)
  promolecular density results
     # of electrons  =    202.982439517
     EX              =   -220.677512631
     EC              =     -7.261719919
     EX+EC           =   -227.939232551
Transforming the Hamiltonian                       ... done (   0.1 sec)
done (   0.2 sec)
Back transforming the eigenvectors                 ... done (   0.1 sec)
done
                      ------------------
                      INITIAL GUESS DONE (   1.2 sec)
                      ------------------
             **** ENERGY FILE WAS UPDATED (BUSMOR-S6.en.tmp) ****
Finished Guess after   1.6 sec
Maximum memory used throughout the entire GUESS-calculation: 82.2 MB


           ************************************************************
           *        Program running with 16 parallel MPI-processes    *
           *              working on a common directory               *
           ************************************************************

-------------------------------------------------------------------------------------------
                                      ORCA LEAN-SCF
                              memory conserving SCF solver
-------------------------------------------------------------------------------------------

----------------------------------------D-I-I-S--------------------------------------------
Iteration    Energy (Eh)           Delta-E    RMSDP     MaxDP     DIISErr   Damp  Time(sec)
-------------------------------------------------------------------------------------------
               ***  Starting incremental Fock matrix formation  ***
    1    -3042.8276882451646088     0.00e+00  4.76e-04  2.52e-02  1.12e-01  0.700  18.0
    2    -3043.2827196605694553    -4.55e-01  3.88e-04  2.00e-02  5.69e-02  0.700  10.2
                               ***Turning on AO-DIIS***
    3    -3043.4798790814584208    -1.97e-01  1.66e-04  1.16e-02  2.35e-02  0.700   9.4
    4    -3043.5911199071306328    -1.11e-01  2.70e-04  2.13e-02  1.23e-02  0.000   8.7
    5    -3043.8276256474537149    -2.37e-01  6.71e-05  5.10e-03  4.12e-03  0.000   9.4
    6    -3043.8295707467559623    -1.95e-03  4.62e-05  4.03e-03  6.89e-03  0.000   8.0
    7    -3043.8299994940771285    -4.29e-04  2.35e-05  2.50e-03  3.85e-03  0.000   7.8
                              *** Initializing SOSCF ***
---------------------------------------S-O-S-C-F--------------------------------------
Iteration    Energy (Eh)           Delta-E    RMSDP     MaxDP     MaxGrad    Time(sec)
--------------------------------------------------------------------------------------
    8    -3043.8302370007577338    -2.38e-04  1.51e-05  1.66e-03  2.37e-03     7.9
               *** Restarting incremental Fock matrix formation ***
    9    -3043.8303731360620077    -1.36e-04  2.68e-05  4.26e-03  2.82e-03    18.3
   10    -3043.8305526927615574    -1.80e-04  1.31e-04  2.59e-02  2.50e-03    12.2
               *** Scaled step length from 0.564437 to 0.200000 ***
   11    -3043.8312638146608151    -7.11e-04  1.79e-04  3.59e-02  4.83e-03    13.8
               *** Scaled step length from 0.893336 to 0.200000 ***
   12    -3043.8321952132928345    -9.31e-04  1.75e-04  3.57e-02  1.13e-02    14.0
   13    -3043.8329870490179019    -7.92e-04  1.61e-04  3.54e-02  1.57e-02    14.1
               *** Scaled step length from 0.400004 to 0.200000 ***
   14    -3043.8350809661324092    -2.09e-03  1.70e-04  2.97e-02  1.62e-02    13.9
   15    -3043.8389708864933709    -3.89e-03  2.02e-04  2.74e-02  1.00e-02    14.0
   16    -3043.8437595895984487    -4.79e-03  1.17e-04  2.18e-02  8.12e-03    14.6
   17    -3043.8458682036753089    -2.11e-03  1.64e-04  3.62e-02  4.02e-03    14.0
   18    -3043.8478015072378184    -1.93e-03  1.50e-04  3.09e-02  5.80e-03    14.2
               *** Scaled step length from 0.659961 to 0.200000 ***
   19    -3043.8499564481289781    -2.15e-03  1.71e-04  3.47e-02  6.88e-03    13.8
               *** Scaled step length from 0.212787 to 0.200000 ***
   20    -3043.8520896503159747    -2.13e-03  1.76e-04  3.78e-02  6.78e-03    13.8
   21    -3043.8535949608494775    -1.51e-03  9.19e-05  1.84e-02  4.98e-03    14.0
   22    -3043.8548603665531118    -1.27e-03  9.40e-05  1.55e-02  4.07e-03    13.4
   23    -3043.8557239176998337    -8.64e-04  5.78e-05  1.23e-02  3.30e-03    13.7
   24    -3043.8559714148141211    -2.47e-04  2.52e-05  3.52e-03  1.56e-03    13.0
   25    -3043.8560900390884854    -1.19e-04  2.58e-05  3.65e-03  1.18e-03    11.9
   26    -3043.8561892447851278    -9.92e-05  4.64e-05  7.26e-03  9.41e-04    12.0
               *** Scaled step length from 0.219399 to 0.200000 ***
   27    -3043.8563600039678931    -1.71e-04  1.63e-04  2.66e-02  1.23e-03    12.3
   28    -3043.8568021055998543    -4.42e-04  1.49e-04  2.45e-02  2.22e-03    13.5
               *** Restarting incremental Fock matrix formation ***
   29    -3043.8571724492385329    -3.70e-04  1.08e-04  1.84e-02  2.26e-03    18.3
   30    -3043.8575960226671668    -4.24e-04  6.91e-05  1.38e-02  1.63e-03    13.4
   31    -3043.8579086582885793    -3.13e-04  5.80e-05  1.34e-02  1.86e-03    13.1
   32    -3043.8581032885958848    -1.95e-04  5.09e-05  9.47e-03  1.24e-03    12.6
   33    -3043.8583032623655527    -2.00e-04  4.41e-05  8.58e-03  7.72e-04    12.6
   34    -3043.8584086827167994    -1.05e-04  2.50e-05  4.71e-03  9.03e-04    12.4
   35    -3043.8584715145861992    -6.28e-05  2.39e-05  5.00e-03  6.91e-04    12.0
   36    -3043.8585296977853432    -5.82e-05  4.08e-05  8.10e-03  6.80e-04    11.8
   37    -3043.8585886740138449    -5.90e-05  2.70e-05  5.73e-03  6.19e-04    12.3
   38    -3043.8586159219457841    -2.72e-05  2.40e-05  4.75e-03  3.79e-04    11.9
   39    -3043.8586371934088675    -2.13e-05  1.15e-05  2.40e-03  2.85e-04    11.5
   40    -3043.8586483549897821    -1.12e-05  7.87e-06  1.28e-03  3.80e-04    10.9
   41    -3043.8586554092753431    -7.05e-06  8.62e-06  1.54e-03  3.00e-04    10.5
   42    -3043.8586632424548952    -7.83e-06  2.04e-05  3.89e-03  2.26e-04    10.5
   43    -3043.8586735924636741    -1.04e-05  1.32e-05  2.66e-03  1.96e-04    11.2
   44    -3043.8586791612260640    -5.57e-06  8.45e-06  1.49e-03  1.71e-04    10.6
   45    -3043.8586829224977919    -3.76e-06  3.99e-06  8.16e-04  1.30e-04    10.3
   46    -3043.8586842178638108    -1.30e-06  2.34e-06  5.28e-04  8.05e-05     9.4
   47    -3043.8586847060523723    -4.88e-07  1.68e-06  4.08e-04  8.17e-05     8.7
   48    -3043.8586851020654649    -3.96e-07  3.32e-06  7.79e-04  7.56e-05     8.4
               *** Restarting incremental Fock matrix formation ***
   49    -3043.8586854057321034    -3.04e-07  4.34e-06  9.27e-04  6.30e-05    18.4
   50    -3043.8586859498245758    -5.44e-07  4.67e-06  9.71e-04  5.04e-05     9.4
   51    -3043.8586864624403461    -5.13e-07  2.22e-06  3.41e-04  4.21e-05     9.3
   52    -3043.8586866562363866    -1.94e-07  7.80e-07  1.19e-04  2.84e-05     8.8
   53    -3043.8586866751029447    -1.89e-08  6.27e-07  1.01e-04  1.85e-05     7.7
   54    -3043.8586867564044951    -8.13e-08  1.30e-06  2.10e-04  2.41e-05     7.4
   55    -3043.8586869183782255    -1.62e-07  4.39e-06  8.35e-04  2.90e-05     7.9
   56    -3043.8586872285422942    -3.10e-07  7.21e-06  1.32e-03  3.76e-05     9.1

       ******************************************************************************
       ***                                                                        ***
       ***                               Auto-TRAH                                ***
       ***                               ---------                                ***
       *** the maximum gradient error decreased on average only by a factor   1.1 ***
       *** during the last  10 iterations                                         ***
       ***                                                                        ***
       ***               Leaving SCF to start the TRAH-SCF procedure              ***
       ***                                                                        ***
       ******************************************************************************

 --------------------------------------------------------------------------------------------
   Iter.        energy            ||Error||_2        Shift      TRadius  Mac/Mic        Rej.
 --------------------------------------------------------------------------------------------
    0      -3043.858687883689     3.051421e-04                     0.400 (TRAH MAcro)   No
    0     dE    -1.022143e-07     1.963909e-04    -1.0221e-07      0.000 (TRAH MIcro)
    0     dE    -1.444863e-07     1.017441e-04    -1.4449e-07      0.001 (TRAH MIcro)
    0     dE    -1.491428e-07     5.197501e-05    -1.4914e-07      0.001 (TRAH MIcro)
    0     dE    -1.514506e-07     2.918720e-05    -1.5145e-07      0.001 (TRAH MIcro)
    1      -3043.858688034401     2.920605e-05                           (NR   MAcro)
    1     dE    -7.830245e-10     1.895037e-05                           (NR   MIcro)
    1     dE    -1.445113e-09     2.826248e-05                           (NR   MIcro)
    1     dE    -2.569808e-09     2.778679e-05                           (NR   MIcro)
    1     dE    -3.800900e-09     2.793163e-05                           (NR   MIcro)
[...]
144:   3057.62   0.001866    9.43  0.000190  ( 0.006849  0.004674  0.011029)
145:   3096.49   0.000180    0.91  0.000018  (-0.003188 -0.002700  0.000835)
146:   3099.41   0.007885   39.85  0.000794  ( 0.025940  0.010801 -0.002100)
147:   3103.87   0.005189   26.22  0.000522  ( 0.012497 -0.018165  0.005962)
148:   3105.68   0.002314   11.69  0.000232  (-0.009368  0.011410 -0.003813)
149:   3136.89   0.001125    5.68  0.000112  ( 0.006876  0.004476 -0.006677)
150:   3139.67   0.000875    4.42  0.000087  ( 0.001576 -0.005766  0.007158)
151:   3141.14   0.000653    3.30  0.000065  (-0.004880 -0.003456  0.005400)
152:   3141.55   0.000775    3.91  0.000077  (-0.000532  0.005174 -0.007063)
153:   3143.93   0.001234    6.24  0.000123  (-0.008187  0.004916 -0.005597)
154:   3144.71   0.001651    8.34  0.000164  (-0.011687  0.004119 -0.003199)
155:   3145.07   0.001767    8.93  0.000175  (-0.007602 -0.004730  0.009755)
156:   3145.46   0.002255   11.40  0.000224  ( 0.004332  0.006845 -0.012575)
157:   3150.00   0.000874    4.42  0.000087  ( 0.005443  0.001529  0.007390)
158:   3151.10   0.000760    3.84  0.000075  (-0.005109  0.004723  0.005184)
159:   3152.30   0.000853    4.31  0.000084  (-0.006097 -0.001389 -0.006737)
160:   3152.76   0.000525    2.65  0.000052  (-0.002744  0.005677  0.003499)
161:   3153.33   0.000644    3.26  0.000064  ( 0.006569  0.000148 -0.004539)
162:   3153.57   0.002386   12.06  0.000236  (-0.012726 -0.003071  0.008042)
163:   3159.21   0.000364    1.84  0.000036  ( 0.001094 -0.003811  0.004495)
164:   3159.38   0.002997   15.15  0.000296  ( 0.003526 -0.011008  0.012745)

* The epsilon (eps) is given for a Dirac delta lineshape.
** The dipole moment derivative (T) already includes vibrational overlap.

The first frequency considered to be a vibration is 6
The total number of vibrations considered is 159


--------------------------
THERMOCHEMISTRY AT 298.15K
--------------------------

Temperature         ...   298.15 K
Pressure            ...     1.00 atm
Total Mass          ...   380.88 AMU
Quasi RRHO          ...     True
Cut-Off Frequency   ...     1.00 cm^-1

Throughout the following assumptions are being made:
  (1) The electronic state is orbitally nondegenerate
      but the spin degeneracy is treated
  (2) There are no thermally accessible electronically excited states
  (3) Hindered rotations indicated by low frequency modes are not
      treated as such but are treated as vibrations and this may
      cause some error
  (4) All equations used are the standard statistical mechanics
      equations for an ideal gas
  (5) All vibrations are strictly harmonic

freq.      24.77  E(vib)   ...       0.56 
freq.      36.56  E(vib)   ...       0.54 
freq.      43.98  E(vib)   ...       0.53 
freq.      62.04  E(vib)   ...       0.51 
freq.      66.14  E(vib)   ...       0.50 
freq.      78.94  E(vib)   ...       0.49 
freq.      80.66  E(vib)   ...       0.48 
freq.     127.49  E(vib)   ...       0.43 
freq.     138.92  E(vib)   ...       0.42 
freq.     155.39  E(vib)   ...       0.40 
freq.     156.10  E(vib)   ...       0.40 
freq.     156.82  E(vib)   ...       0.40 
freq.     162.90  E(vib)   ...       0.39 
freq.     170.78  E(vib)   ...       0.38 
freq.     171.90  E(vib)   ...       0.38 
freq.     175.38  E(vib)   ...       0.38 
freq.     177.98  E(vib)   ...       0.37 
freq.     180.34  E(vib)   ...       0.37 
freq.     183.82  E(vib)   ...       0.37 
freq.     194.07  E(vib)   ...       0.36 
freq.     195.75  E(vib)   ...       0.36 
freq.     199.21  E(vib)   ...       0.35 
freq.     204.77  E(vib)   ...       0.35 
freq.     206.69  E(vib)   ...       0.35 
freq.     207.99  E(vib)   ...       0.34 
freq.     210.23  E(vib)   ...       0.34 
freq.     214.82  E(vib)   ...       0.34 
freq.     245.67  E(vib)   ...       0.31 
freq.     249.36  E(vib)   ...       0.31 
freq.     251.02  E(vib)   ...       0.30 
freq.     255.45  E(vib)   ...       0.30 
freq.     262.55  E(vib)   ...       0.29 
freq.     264.26  E(vib)   ...       0.29 
freq.     272.70  E(vib)   ...       0.29 
freq.     276.16  E(vib)   ...       0.28 
freq.     293.33  E(vib)   ...       0.27 
freq.     293.64  E(vib)   ...       0.27 
freq.     333.54  E(vib)   ...       0.24 
freq.     337.80  E(vib)   ...       0.24 
freq.     438.53  E(vib)   ...       0.17 
freq.     467.63  E(vib)   ...       0.16 
freq.     468.34  E(vib)   ...       0.16 
freq.     479.52  E(vib)   ...       0.15 
freq.     571.40  E(vib)   ...       0.11 
freq.     574.00  E(vib)   ...       0.11 
freq.     575.00  E(vib)   ...       0.11 
freq.     591.20  E(vib)   ...       0.10 
freq.     598.69  E(vib)   ...       0.10 
freq.     618.28  E(vib)   ...       0.09 
freq.     638.68  E(vib)   ...       0.09 
freq.     639.09  E(vib)   ...       0.09 
freq.     662.10  E(vib)   ...       0.08 
freq.     665.18  E(vib)   ...       0.08 
freq.     702.27  E(vib)   ...       0.07 
freq.     702.45  E(vib)   ...       0.07 
freq.     713.23  E(vib)   ...       0.07 
freq.     714.46  E(vib)   ...       0.07 
freq.     740.47  E(vib)   ...       0.06 
freq.     740.89  E(vib)   ...       0.06 
freq.     742.07  E(vib)   ...       0.06 
freq.     742.34  E(vib)   ...       0.06 
freq.     793.57  E(vib)   ...       0.05 
freq.     795.78  E(vib)   ...       0.05 
freq.     806.43  E(vib)   ...       0.05 
freq.     807.51  E(vib)   ...       0.05 
freq.     808.69  E(vib)   ...       0.05 
freq.     811.62  E(vib)   ...       0.05 
freq.     812.29  E(vib)   ...       0.05 
freq.     812.80  E(vib)   ...       0.05 
freq.     815.91  E(vib)   ...       0.05 
freq.     827.05  E(vib)   ...       0.04 
freq.     844.57  E(vib)   ...       0.04 
freq.     854.52  E(vib)   ...       0.04 
freq.     860.53  E(vib)   ...       0.04 
freq.     861.59  E(vib)   ...       0.04 
freq.     912.05  E(vib)   ...       0.03 
freq.     914.90  E(vib)   ...       0.03 
freq.     921.91  E(vib)   ...       0.03 
freq.     924.62  E(vib)   ...       0.03 
freq.     925.34  E(vib)   ...       0.03 
freq.     926.18  E(vib)   ...       0.03 
freq.     927.39  E(vib)   ...       0.03 
freq.     931.61  E(vib)   ...       0.03 
freq.     953.91  E(vib)   ...       0.03 
freq.     954.75  E(vib)   ...       0.03 
freq.     956.38  E(vib)   ...       0.03 
freq.     961.55  E(vib)   ...       0.03 
freq.     971.15  E(vib)   ...       0.03 
freq.     971.67  E(vib)   ...       0.03 
freq.    1015.94  E(vib)   ...       0.02 
freq.    1018.48  E(vib)   ...       0.02 
freq.    1039.65  E(vib)   ...       0.02 
freq.    1040.82  E(vib)   ...       0.02 
freq.    1118.15  E(vib)   ...       0.01 
freq.    1118.49  E(vib)   ...       0.01 
freq.    1299.54  E(vib)   ...       0.01 
freq.    1300.05  E(vib)   ...       0.01 
freq.    1301.67  E(vib)   ...       0.01 
freq.    1302.30  E(vib)   ...       0.01 
freq.    1312.79  E(vib)   ...       0.01 
freq.    1312.98  E(vib)   ...       0.01 
freq.    1316.24  E(vib)   ...       0.01 
freq.    1316.59  E(vib)   ...       0.01 
freq.    1382.68  E(vib)   ...       0.01 
freq.    1394.27  E(vib)   ...       0.00 
freq.    1398.80  E(vib)   ...       0.00 
freq.    1409.24  E(vib)   ...       0.00 
freq.    1438.01  E(vib)   ...       0.00 
freq.    1438.51  E(vib)   ...       0.00 
freq.    1441.41  E(vib)   ...       0.00 
freq.    1442.32  E(vib)   ...       0.00 
freq.    1442.70  E(vib)   ...       0.00 
freq.    1443.00  E(vib)   ...       0.00 
freq.    1444.99  E(vib)   ...       0.00 
freq.    1445.71  E(vib)   ...       0.00 
freq.    1452.11  E(vib)   ...       0.00 
freq.    1452.47  E(vib)   ...       0.00 
freq.    1454.11  E(vib)   ...       0.00 
freq.    1454.42  E(vib)   ...       0.00 
freq.    1457.61  E(vib)   ...       0.00 
freq.    1457.83  E(vib)   ...       0.00 
freq.    1462.65  E(vib)   ...       0.00 
freq.    1463.25  E(vib)   ...       0.00 
freq.    2465.51  E(vib)   ...       0.00 
freq.    2465.96  E(vib)   ...       0.00 
freq.    2519.69  E(vib)   ...       0.00 
freq.    2519.99  E(vib)   ...       0.00 
freq.    3035.01  E(vib)   ...       0.00 
freq.    3035.89  E(vib)   ...       0.00 
freq.    3039.90  E(vib)   ...       0.00 
freq.    3041.58  E(vib)   ...       0.00 
freq.    3048.47  E(vib)   ...       0.00 
freq.    3050.52  E(vib)   ...       0.00 
freq.    3052.02  E(vib)   ...       0.00 
freq.    3052.30  E(vib)   ...       0.00 
freq.    3055.06  E(vib)   ...       0.00 
freq.    3055.44  E(vib)   ...       0.00 
freq.    3057.42  E(vib)   ...       0.00 
freq.    3057.62  E(vib)   ...       0.00 
freq.    3096.49  E(vib)   ...       0.00 
freq.    3099.41  E(vib)   ...       0.00 
freq.    3103.87  E(vib)   ...       0.00 
freq.    3105.68  E(vib)   ...       0.00 
freq.    3136.89  E(vib)   ...       0.00 
freq.    3139.67  E(vib)   ...       0.00 
freq.    3141.14  E(vib)   ...       0.00 
freq.    3141.55  E(vib)   ...       0.00 
freq.    3143.93  E(vib)   ...       0.00 
freq.    3144.71  E(vib)   ...       0.00 
freq.    3145.07  E(vib)   ...       0.00 
freq.    3145.46  E(vib)   ...       0.00 
freq.    3150.00  E(vib)   ...       0.00 
freq.    3151.10  E(vib)   ...       0.00 
freq.    3152.30  E(vib)   ...       0.00 
freq.    3152.76  E(vib)   ...       0.00 
freq.    3153.33  E(vib)   ...       0.00 
freq.    3153.57  E(vib)   ...       0.00 
freq.    3159.21  E(vib)   ...       0.00 
freq.    3159.38  E(vib)   ...       0.00 

------------
INNER ENERGY
------------

The inner energy is: U= E(el) + E(ZPE) + E(vib) + E(rot) + E(trans)
    E(el)   - is the total energy from the electronic structure calculation
              = E(kin-el) + E(nuc-el) + E(el-el) + E(nuc-nuc)
    E(ZPE)  - the the zero temperature vibrational energy from the frequency calculation
    E(vib)  - the the finite temperature correction to E(ZPE) due to population
              of excited vibrational states
    E(rot)  - is the rotational thermal energy
    E(trans)- is the translational thermal energy

Summary of contributions to the inner energy U:
Electronic energy                ...  -3043.94827185 Eh
Zero point energy                ...      0.45720469 Eh     286.90 kcal/mol
Thermal vibrational correction   ...      0.02848078 Eh      17.87 kcal/mol
Thermal rotational correction    ...      0.00141627 Eh       0.89 kcal/mol
Thermal translational correction ...      0.00141627 Eh       0.89 kcal/mol
-----------------------------------------------------------------------
Total thermal energy                  -3043.45975384 Eh


Summary of corrections to the electronic energy:
(perhaps to be used in another calculation)
Total thermal correction                  0.03131332 Eh      19.65 kcal/mol
Non-thermal (ZPE) correction              0.45720469 Eh     286.90 kcal/mol
-----------------------------------------------------------------------
Total correction                          0.48851801 Eh     306.55 kcal/mol


--------
ENTHALPY
--------

The enthalpy is H = U + kB*T
                kB is Boltzmann's constant
Total thermal energy              ...  -3043.45975384 Eh 
Thermal Enthalpy correction       ...      0.00094421 Eh       0.59 kcal/mol
-----------------------------------------------------------------------
Total Enthalpy                    ...  -3043.45880963 Eh


Note: Only C1 symmetry has been detected, increase convergence thresholds 
      if your molecule has a higher symmetry. Symmetry factor of 1.0 is   
      used for the rotational entropy correction. 
 

Note: Rotational entropy computed according to Herzberg 
Infrared and Raman Spectra, Chapter V,1, Van Nostrand Reinhold, 1945 
Point Group:  C1, Symmetry Number:   1  
Rotational constants in cm-1:     0.010905     0.005717     0.004284 

Vibrational entropy computed according to the QRRHO of S. Grimme
Chem.Eur.J. 2012 18 9955 using a reference frequency of 100.0 cm-1


-------
ENTROPY
-------

The entropy contributions are T*S = T*(S(el)+S(vib)+S(rot)+S(trans))
     S(el)   - electronic entropy
     S(vib)  - vibrational entropy
     S(rot)  - rotational entropy
     S(trans)- translational entropy
The entropies will be listed as multiplied by the temperature to get
units of energy

Electronic entropy                ...      0.00065446 Eh      0.41 kcal/mol
Vibrational entropy               ...      0.05027082 Eh     31.55 kcal/mol
Rotational entropy                ...      0.01665624 Eh     10.45 kcal/mol
Translational entropy             ...      0.02076523 Eh     13.03 kcal/mol
-----------------------------------------------------------------------
Final entropy term                ...      0.08834674 Eh     55.44 kcal/mol

In case the symmetry of your molecule has not been determined correctly
or in case you have a reason to use a different symmetry number we print 
out the resulting rotational entropy values for sn=1,12:

 non-linear molecules -----------------------------------
|  sn= 1 | S(rot)=       0.01665624 Eh     10.45 kcal/mol|
|  sn= 2 | S(rot)=       0.01600179 Eh     10.04 kcal/mol|
|  sn= 3 | S(rot)=       0.01561896 Eh      9.80 kcal/mol|
|  sn= 4 | S(rot)=       0.01534733 Eh      9.63 kcal/mol|
|  sn= 5 | S(rot)=       0.01513664 Eh      9.50 kcal/mol|
|  sn= 6 | S(rot)=       0.01496450 Eh      9.39 kcal/mol|
|  sn= 7 | S(rot)=       0.01481895 Eh      9.30 kcal/mol|
|  sn= 8 | S(rot)=       0.01469288 Eh      9.22 kcal/mol|
|  sn= 9 | S(rot)=       0.01458167 Eh      9.15 kcal/mol|
|  sn=10 | S(rot)=       0.01448219 Eh      9.09 kcal/mol|
|  sn=11 | S(rot)=       0.01439220 Eh      9.03 kcal/mol|
|  sn=12 | S(rot)=       0.01431004 Eh      8.98 kcal/mol|
 linear molecules ---------------------------------------
|  Dinfh | S(rot)=       0.01047438 Eh      6.57 kcal/mol|
|  Cinfv | S(rot)=       0.01112884 Eh      6.98 kcal/mol|
 --------------------------------------------------------


-------------------
GIBBS FREE ENERGY
-------------------

The Gibbs free energy is G = H - T*S

Total enthalpy                    ...  -3043.45880963 Eh 
Total entropy correction          ...     -0.08834674 Eh    -55.44 kcal/mol
-----------------------------------------------------------------------
Final Gibbs free energy         ...  -3043.54715638 Eh

For completeness - the Gibbs free energy minus the electronic energy
G-E(el)                           ...      0.40111548 Eh    251.70 kcal/mol


Maximum memory used throughout the entire PROP-calculation: 1272.5 MB

--------------------------------
SUGGESTED CITATIONS FOR THIS RUN
--------------------------------

Below you find a list of papers that are relevant to this ORCA run
We neither can nor want to force you to cite these papers, but we appreciate if you do
You receive ORCA, which is the product of decades of hard work by many enthusiastic individuals, for free
The only thing we kindly ask in return is that you cite our papers,
We deeply appreciate it, if you show your appreciation for ORCA by not just citing the generic ORCA reference.

Please note that relegating all ORCA citations to the supporting information does *not* help us.
SI sections are not indexed - citations you put there will not count into any citation statistics
But we need these citations in order to attract the funding resources that allow us to do what we are doing

Therefore, if you are a happy ORCA user, please consider citing a few of the papers listed below in the main body of your paper

In addition to the list printed below, the program has created the file BUSMOR-S6.bibtex that contains the list in bibtex format
You can import this file easily into all common literature databanks and citation aid programs


List of essential papers. We consider these as the minimum necessary citations

  1. Neese,F.
     Software update: the ORCA program system, version 5.0
     WIRES Comput. Molec. Sci., 2022 12(1)e1606
     doi.org/10.1002/wcms.1606

List of papers to cite with high priority. The work reported in these papers was absolutely
necessary for this run to complete.
Our perspective: the developers of density functionals and basis sets usually get cited in chemistry papers
Good! But without the algorithms to do something with them, the functionals or basis sets would not do anything.
Hence, in our opinion, the algorithm design and method developments papers are equally worthy of getting cited

  1. Neese,F.
     An improvement of the resolution of the identity approximation for the formation of the Coulomb matrix
     J. Comp. Chem., 2003 24(14)1740-1747
     doi.org/10.1002/jcc.10318
  2. Neese,F.; Wennmohs,F.; Hansen,A.; Becker,U.
     Efficient, approximate and parallel Hartree-Fock and hybrid DFT calculations. A 'chain-of-spheres' algorithm for the Hartree-Fock exchange
     Chem. Phys., 2009 356(1-3)98-109
     doi.org/10.1016/j.chemphys.2008.10.036
  3. Bykov,D.; Petrenko,T.; Izsak,R.; Kossmann,S.; Becker,U.; Valeev,E.; Neese,F.
     Efficient implementation of the analytic second derivatives of Hartree-Fock and hybrid DFT energies: a detailed analysis of different approximations
     Molec. Phys., 2015 113 1961-1977
     doi.org/10.1080/00268976.2015.1025114
  4. Helmich-Paris,B.; de Souza,B.; Neese,F.; Izsák,R.
     An improved chain of spheres for exchange algorithm
     J. Chem. Phys., 2021 155 104109
     doi.org/doi: 10.1063/5.0058766.
  5. Helmich-Paris,B.
     A trust-region augmented Hessian implementation for restricted and unrestricted Hartree–Fock and Kohn–Sham methods
     J. Chem. Phys., 2021 154 164104
     doi.org/10.1063/5.0040798
  6. Neese,F.
     The SHARK Integral Generation and Digestion System
     J. Comp. Chem., 2022  1-16
     doi.org/10.1002/jcc.26942

List of suggested additional citations. These are papers that are important in the 'surrounding' of 
of this run, or papers that preceded the highly important papers. If you like your results we are grateful for a citation.

  1. Izsak,R.; Neese,F.
     An overlap fitted chain of spheres exchange method
     J. Chem. Phys., 2011 135 144105
     doi.org/10.1063/1.3646921
  2. Izsak,R.; Hansen,A.; Neese,F.
     The resolution of identity and chain of spheres approximations for the LPNO-CCSD singles Fock term
     Molec. Phys., 2012 110 2413-2417
     doi.org/10.1080/00268976.2012.687466
  3. Neese,F.
     The ORCA program system
     WIRES Comput. Molec. Sci., 2012 2(1)73-78
     doi.org/10.1002/wcms.81
  4. Izsak,R.; Neese,F.; Klopper,W.
     Robust fitting techniques in the chain of spheres approximation to the Fock exchange: The role of the complementary space
     J. Chem. Phys., 2013 139 
     doi.org/10.1063/1.4819264
  5. Neese,F.
     Software update: the ORCA program system, version 4.0
     WIRES Comput. Molec. Sci., 2018 8(1)1-6
     doi.org/10.1002/wcms.1327
  6. Neese,F.; Wennmohs,F.; Becker,U.; Riplinger,C.
     The ORCA quantum chemistry program package
     J. Chem. Phys., 2020 152 Art. No. L224108
     doi.org/10.1063/5.0004608

List of optional additional citations

  1. Neese,F.
     Approximate second-order SCF convergence for spin unrestricted wavefunctions
     Chem. Phys. Lett., 2000 325(1-3)93-98
     doi.org/10.1016/s0009-2614(00)00662-x

Timings for individual modules:

Sum of individual times          ...    28643.669 sec (= 477.394 min)
Startup calculation              ...      445.692 sec (=   7.428 min)   1.6 %
SCF iterations                   ...    14664.419 sec (= 244.407 min)  51.2 %
Property integrals               ...     3320.636 sec (=  55.344 min)  11.6 %
SCF Response                     ...     7424.187 sec (= 123.736 min)  25.9 %
Property calculations            ...      780.702 sec (=  13.012 min)   2.7 %
SCF Gradient evaluation          ...     2005.809 sec (=  33.430 min)   7.0 %
Geometry relaxation              ...        2.225 sec (=   0.037 min)   0.0 %
                             ****ORCA TERMINATED NORMALLY****
TOTAL RUN TIME: 0 days 7 hours 58 minutes 34 seconds 560 msec
