
                                 *****************
                                 * O   R   C   A *
                                 *****************

                                            #,                                       
                                            ###                                      
                                            ####                                     
                                            #####                                    
                                            ######                                   
                                           ########,                                 
                                     ,,################,,,,,                         
                               ,,#################################,,                 
                          ,,##########################################,,             
                       ,#########################################, ''#####,          
                    ,#############################################,,   '####,        
                  ,##################################################,,,,####,       
                ,###########''''           ''''###############################       
              ,#####''   ,,,,##########,,,,          '''####'''          '####       
            ,##' ,,,,###########################,,,                        '##       
           ' ,,###''''                  '''############,,,                           
         ,,##''                                '''############,,,,        ,,,,,,###''
      ,#''                                            '''#######################'''  
     '                                                          ''''####''''         
             ,#######,   #######,   ,#######,      ##                                
            ,#'     '#,  ##    ##  ,#'     '#,    #''#        ,####,   ,####,        
            ##       ##  ##   ,#'  ##            #'  '#       #'       #'  '#        
            ##       ##  #######   ##           ,######,      #####,   #    #        
            '#,     ,#'  ##    ##  '#,     ,#' ,#      #,     #,   #   #,  ,#        
             '#######'   ##     ##  '#######'  #'      '#     '####' # '####'        



                #########################################################
                #                        -***-                          #
                #          Department of theory and spectroscopy        #
                #                                                       #
                #                      Frank Neese                      #
                #                                                       #
                #     Directorship, Architecture, Infrastructure        #
                #                    SHARK, DRIVERS                     #
                #        Core code/Algorithms in most modules           #
                #                                                       #
                #        Max Planck Institute fuer Kohlenforschung      #
                #                Kaiser Wilhelm Platz 1                 #
                #                 D-45470 Muelheim/Ruhr                 #
                #                      Germany                          #
                #                                                       #
                #                  All rights reserved                  #
                #                        -***-                          #
                #########################################################


                         Program Version 6.0.1  -  RELEASE   -


 With contributions from (in alphabetic order):
[Max-Planck-Institut fuer Kohlenforschung]                               
  Daniel Aravena         : Magnetic Suceptibility                        
  Michael Atanasov       : Ab Initio Ligand Field Theory (pilot matlab implementation)
  Alexander A. Auer      : GIAO ZORA, VPT2 properties, NMR spectrum      
  Ute Becker             : All parallelization in ORCA, NUMFREQ, NUMCALC 
  Giovanni Bistoni       : ED, misc. LED, open-shell LED, HFLD           
  Martin Brehm           : Molecular dynamics                            
  Dmytro Bykov           : pre 5.0 version of the SCF Hessian            
  Marcos Casanova-Páez   : Triplet and SCS-CIS(D). UHF-(DLPNO)-IP/EA/STEOM-CCSD. UHF-CVS-IP/STEOM-CCSD   
  Vijay G. Chilkuri      : MRCI spin determinant printing, contributions to CSF-ICE 
  Pauline Colinet        : FMM embedding                                 
  Dipayan Datta          : RHF DLPNO-CCSD density                        
  Achintya Kumar Dutta   : EOM-CC, STEOM-CC                              
  Nicolas Foglia         : Exact transition moments, OPA infrastructure, MCD improvements    
  Dmitry Ganyushin       : Spin-Orbit,Spin-Spin,Magnetic field MRCI      
  Miquel Garcia-Rates    : C-PCM and meta-GGA Hessian, CCSD/C-PCM, Gaussian charge scheme 
  Tiago L. C. Gouveia    : GS-ROHF, GS-ROCIS                             
  Yang Guo               : DLPNO-NEVPT2, F12-NEVPT2, CIM, IAO-localization        
  Andreas Hansen         : Spin unrestricted coupled pair/coupled cluster methods 
  Ingolf Harden          : AUTO-CI MPn and infrastructure                
  Benjamin Helmich-Paris : MC-RPA, TRAH-(SCF,CASSCF), AVAS, COSX integrals, SCF dyn. polar. 
  Lee Huntington         : MR-EOM, pCC                                   
  Robert Izsak           : Overlap fitted RIJCOSX, COSX-SCS-MP3, EOM     
  Riya Kayal             : Wick's Theorem for AUTO-CI, AUTO-CI UHF-CCSDT 
  Emily Kempfer          : AUTO-CI, RHF CISDT and CCSDT                  
  Christian Kollmar      : KDIIS, OOCD, Brueckner-CCSD(T), CCSD density, CASPT2, CASPT2-K, improved NEVPT2 
  Axel Koslowski         : Symmetry handling                             
  Simone Kossmann        : meta-GGA functionals, TD-DFT gradient, OOMP2, (MP2 Hessian; deprecated post 5.0) 
  Lucas Lang             : DCDCAS                                        
  Marvin Lechner         : AUTO-CI (C++ implementation), FIC-MRCC        
  Spencer Leger          : CASSCF response                               
  Dagmar Lenk            : GEPOL surface, SMD, ORCA-2-JSON               
  Dimitrios Liakos       : Extrapolation schemes; Compound Job, initial MDCI parallelization 
  Dimitrios Manganas     : Further ROCIS development; embedding schemes. LFT, Crystal Embedding 
  Dimitrios Pantazis     : SARC Basis sets                               
  Anastasios Papadopoulos: AUTO-CI, single reference methods and gradients 
  Taras Petrenko         : pre 6.0 DFT Hessian and TD-DFT gradient, (ASA, deprecated), ECA, 1-Electron XAS/XES, NRVS 
  Peter Pinski           : DLPNO-MP2, DLPNO-MP2 Gradient                 
  Christoph Reimann      : Effective Core Potentials                     
  Marius Retegan         : Local ZFS, SOC                                
  Christoph Riplinger    : Optimizer, TS searches, QM/MM, DLPNO-CCSD(T), (RO)-DLPNO pert. Triples 
  Michael Roemelt        : Original ROCIS implementation                 
  Masaaki Saitow         : Open-shell DLPNO-CCSD energy and density      
  Barbara Sandhoefer     : DKH picture change effects                    
  Kantharuban Sivalingam : CASSCF convergence/infrastructure, NEVPT2 and variants, FIC-MRCI 
  Bernardo de Souza      : ESD, SOC TD-DFT                               
  Georgi L. Stoychev     : AutoAux, RI-MP2 NMR, DLPNO-MP2 response, X2C  
  Van Anh Tran           : RI-MP2 g-tensors                              
  Willem Van den Heuvel  : Paramagnetic NMR                              
  Zikuan Wang            : NOTCH, Electric field optimization            
  Frank Wennmohs         : Technical directorship and infrastructure     
  Hang Xu                : AUTO-CI-Response properties                   
                                                                         
[FACCTs GmbH]                                                            
  Markus Bursch, Miquel Garcia-Rates, Christoph Riplinger, Bernardo de Souza, Georgi L. Stoychev 
                                                                 
  APM, Basis sets (HGBS, AHGBS, def-TZVP (Ac-Lr), def2-XVPD (La-Lu)), CI-OPT, improved COSX, DLPNO-Multilevel,           
  DOCKER, DRACO, updates on ESD, GOAT, IRC, LR-CPCM, MBIS, meta-GGA TD-DFT gradient, ML-optimized integration grids, 
  MM, NACMEs, nearIR, NEB, NEB-TS, NL-DFT gradient (VV10), 2- and 3-layer-ONIOM, interface openCOSMO-RS, QMMM,   
  Crystal-QMMM, SF, symmetry and pop. for TD-DFT, r2SCAN hybrids, SOLVATOR                                   
                                                                         
[Other institutions]                                                     
  V. Asgeirsson          : NEB                                           
  Christoph Bannwarth    : sTDA-DFT, sTD-DFT, PBEh-3c, B97-3c, D3        
  Sebastian Ehlert       : rSCAN, r2SCAN, r2SCAN-3c, D4, dhf basis sets  
  Marvin Friede          : D4 for Fr, Ra, Ac-Lr                          
  Lars Goerigk           : TD-DFT with DH, B97 family of functionals     
  Stefan Grimme          : VdW corrections, initial TS optimization, DFT functionals, gCP, sTDA/sTD-DF 
  Waldemar Hujo          : DFT-NL                                        
  H. Jonsson             : NEB                                           
  Holger Kruse           : gCP                                           
  Marcel Mueller         : wB97X-3c, vDZP basis set                      
  Hagen Neugebauer       : wr2SCAN                                       
  Tobias Risthaus        : range-separated hybrid DFT                    
  Lukas Wittmann         : regularized MP2, r2SCAN double-hybrids, wr2SCAN        
                                                                         
We gratefully acknowledge several colleagues who have allowed us to      
interface, adapt or use parts of their codes:                            
  Ed Valeev, F. Pavosevic, A. Kumar             : LibInt (2-el integral package), F12 methods 
  Garnet Chan, S. Sharma, J. Yang, R. Olivares  : DMRG                   
  Ulf Ekstrom                                   : XCFun DFT Library      
  Mihaly Kallay                                 : mrcc  (arbitrary order and MRCC methods)
  Frank Weinhold                                : gennbo (NPA and NBO analysis)           
  Simon Mueller                                 : openCOSMO-RS                            
  Christopher J. Cramer and Donald G. Truhlar   : smd solvation model                     
  S Lehtola, MJT Oliveira, MAL Marques          : LibXC Library                           
  Liviu Ungur et al                             : ANISO software                          


 Your calculation uses the libint2 library for the computation of 2-el integrals
 For citations please refer to: http://libint.valeyev.net

 Your ORCA version has been built with support for libXC version: 6.2.2
 For citations please refer to: https://libxc.gitlab.io

 This ORCA versions uses:
   CBLAS   interface :  Fast vector & matrix operations
   LAPACKE interface :  Fast linear algebra routines
   SCALAPACK package :  Parallel linear algebra routines
   Shared memory     :  Shared parallel matrices
   BLAS/LAPACK       :  OpenBLAS 0.3.27  USE64BITINT DYNAMIC_ARCH NO_AFFINITY Cooperlake SINGLE_THREADED
        Core in use  :  Cooperlake
   Copyright (c) 2011-2014, The OpenBLAS Project


NOTE: MaxCore=3600 MB was set to SCF,MP2,MDCI,CIPSI,MRCI and CIS
      => If you want to overwrite this, your respective input block should be placed after the MaxCore statement
Warning: RI is on but no J-basis has been assigned. Assigning Def2/J (nothing to worry about!)
================================================================================

----- Orbital basis set information -----
Your calculation utilizes the basis: def2-TZVP
   F. Weigend and R. Ahlrichs, Phys. Chem. Chem. Phys. 7, 3297 (2005).

----- AuxJ basis set information -----
Your calculation utilizes the auxiliary basis: def2/J
   F. Weigend, Phys. Chem. Chem. Phys. 8, 1057 (2006).

================================================================================
                                        WARNINGS
                       Please study these warnings very carefully!
================================================================================


WARNING: your system is open-shell and RHF/RKS was chosen
  ===> : WILL SWITCH to UHF/UKS


WARNING: Geometry Optimization
  ===> : Switching off AutoStart
         For restart on a previous wavefunction, please use MOREAD

================================================================================
                                       INPUT FILE
================================================================================
NAME = CEBBAM-S2.inp
|  1> ! PBE0 def2-TZVP  Opt Freq DEFGRID3
|  2> 
|  3> %maxcore 3600
|  4> 
|  5> %pal
|  6>     nprocs 16
|  7> end
|  8> 
|  9> *xyz 0 2
| 10> Mn -2.423 1.3857 12.7981
| 11> C -4.3314 1.5601 13.6831
| 12> C -4.3735 2.8178 14.5043
| 13> C -5.4647 3.1842 15.2767
| 14> C -5.4641 4.3107 16.0576
| 15> C -4.3505 5.1187 16.0778
| 16> C -3.2639 4.7955 15.3053
| 17> C -3.251 3.6418 14.5177
| 18> C -2.0424 3.2386 13.7217
| 19> P -3.2062 2.5314 11.0533
| 20> C -4.4433 3.8402 11.2363
| 21> C -2.1016 3.3938 9.8979
| 22> C -4.1129 1.4225 9.8878
| 23> P -3.179 -0.4256 11.6041
| 24> C -4.6412 -1.3041 12.2086
| 25> C -2.197 -1.8561 11.0549
| 26> C -3.7693 0.1072 9.9617
| 27> P -0.2129 1.1665 12.212
| 28> C 0.4509 0.5504 10.6032
| 29> C 0.8184 2.6546 12.3262
| 30> C 0.6411 0.0208 13.3758
| 31> P -1.7534 0.392 14.6789
| 32> C -2.1169 1.0993 16.3179
| 33> C -2.2278 -1.3153 15.0416
| 34> C 0.1198 0.3296 14.7562
| 35> H -5.1116 1.5185 13.0785
| 36> H -4.5801 0.792 14.2507
| 37> H -6.1044 2.6338 15.2616
| 38> H -6.1736 4.5011 16.548
| 39> H -4.3153 5.8772 16.6487
| 40> H -2.5514 5.3603 15.2885
| 41> H -1.2515 3.2802 14.2675
| 42> H -1.8747 3.853 13.0617
| 43> H -4.7205 4.1859 10.3278
| 44> H -5.0364 3.7442 11.8274
| 45> H -4.0306 4.5875 11.6998
| 46> H -1.7153 4.0515 10.5377
| 47> H -2.5781 3.741 9.1355
| 48> H -1.612 2.653 9.5251
| 49> H -4.1453 1.9713 9.0683
| 50> H -4.9769 1.2465 10.091
| 51> H -4.989 -1.9137 11.6024
| 52> H -4.1741 -1.7601 13.0399
| 53> H -5.1729 -0.8609 12.6604
| 54> H -1.5634 -1.4561 10.3043
| 55> H -2.7771 -2.5106 10.6435
| 56> H -1.5767 -2.0897 11.6847
| 57> H -4.3588 -0.6096 9.4159
| 58> H -2.8985 0.3392 9.1959
| 59> H 0.2156 -0.2272 10.6334
| 60> H 0.1182 1.2465 9.7803
| 61> H 1.2574 0.416 10.7157
| 62> H 0.4396 3.2338 11.6024
| 63> H 0.7914 3.1298 13.0886
| 64> H 1.6534 2.3729 12.1818
| 65> H 1.6457 0.0064 13.2532
| 66> H 0.3052 -1.0849 13.2364
| 67> H -1.7667 0.6384 16.9258
| 68> H -2.9931 1.0241 16.4808
| 69> H -1.7226 1.8465 16.3414
| 70> H -2.1573 -1.7089 15.6932
| 71> H -3.1614 -1.5505 15.0568
| 72> H -1.9354 -1.8849 14.2003
| 73> H 0.6157 0.1616 15.6042
| 74> H -0.2143 -0.5744 14.9896
| 75> *
| 76> 
| 77>                          ****END OF INPUT****
================================================================================

                       *****************************
                       * Geometry Optimization Run *
                       *****************************

Geometry optimization settings:
Update method            Update   .... BFGS
Choice of coordinates    CoordSys .... (2022) Redundant Internals
Initial Hessian          InHess   .... Almloef's Model
Max. no of cycles        MaxIter  .... 195

Convergence Tolerances:
Energy Change            TolE     ....  5.0000e-06 Eh
Max. Gradient            TolMAXG  ....  3.0000e-04 Eh/bohr
RMS Gradient             TolRMSG  ....  1.0000e-04 Eh/bohr
Max. Displacement        TolMAXD  ....  4.0000e-03 bohr
RMS Displacement         TolRMSD  ....  2.0000e-03 bohr
Strict Convergence                .... False

------------------------------------------------------------------------------
                        ORCA OPTIMIZATION COORDINATE SETUP
------------------------------------------------------------------------------

The optimization will be done in redundant internal coordinates (2022)
Making redundant internal coordinates   ...  (2022 redundants) done
Evaluating the initial hessian          ...  (Almloef) done
Evaluating the coordinates              ...  done
Calculating the B-matrix                .... done
Calculating the G-matrix                .... done
Diagonalizing the G-matrix              .... done
Small eigenvalue found = 1.379e-02
Small eigenvalue found = 1.515e-02
Small eigenvalue found = 1.841e-02
Small eigenvalue found = 2.069e-02
The first mode is                       ....  201
The number of degrees of freedom        ....  189

    -----------------------------------------------------------------
                    Redundant Internal Coordinates


    -----------------------------------------------------------------
         Definition                    Initial Value    Approx d2E/dq
    -----------------------------------------------------------------
      1. B(C   1,Mn  0)                  2.1108         0.447522   
      2. B(C   2,C   1)                  1.5026         0.413063   
      3. B(C   3,C   2)                  1.3862         0.633565   
      4. B(C   4,C   3)                  1.3707         0.670713   
      5. B(C   5,C   4)                  1.3760         0.657770   
      6. B(C   6,C   5)                  1.3718         0.667928   
      7. B(C   7,C   2)                  1.3925         0.618998   
      8. B(C   7,C   6)                  1.3970         0.609019   
      9. B(C   8,C   7)                  1.5023         0.413594   
     10. B(C   8,Mn  0)                  2.1050         0.457179   
     11. B(P   9,Mn  0)                  2.2294         0.972972   
     12. B(C  10,P   9)                  1.8102         0.448552   
     13. B(C  11,P   9)                  1.8163         0.438684   
     14. B(C  12,P   9)                  1.8467         0.392338   
     15. B(P  13,Mn  0)                  2.2974         0.758022   
     16. B(C  14,P  13)                  1.8098         0.449305   
     17. B(C  15,P  13)                  1.8200         0.432763   
     18. B(C  16,P  13)                  1.8248         0.425182   
     19. B(C  16,C  12)                  1.3614         0.693895   
     20. B(P  17,Mn  0)                  2.2970         0.759160   
     21. B(C  18,P  17)                  1.8462         0.393005   
     22. B(C  19,P  17)                  1.8141         0.442142   
     23. B(C  20,P  17)                  1.8429         0.397758   
     24. B(P  21,Mn  0)                  2.2301         0.970687   
     25. B(C  22,P  21)                  1.8217         0.429955   
     26. B(C  23,P  21)                  1.8087         0.451010   
     27. B(C  24,P  21)                  1.8758         0.352467   
     28. B(C  24,C  20)                  1.5075         0.405736   
     29. B(H  25,C   1)                  0.9879         0.523947   
     30. B(H  26,C   1)                  0.9869         0.525885   
     31. B(H  27,C   3)                  0.8440         0.888904   
     32. B(H  28,C   4)                  0.8833         0.769619   
     33. B(H  29,C   5)                  0.9500         0.602274   
     34. B(H  30,C   6)                  0.9094         0.699232   
     35. B(H  31,C   8)                  0.9618         0.576610   
     36. B(H  32,C   8)                  0.9172         0.679444   
     37. B(H  33,C  10)                  1.0108         0.481702   
     38. B(H  34,C  10)                  0.8428         0.892787   
     39. B(H  35,C  10)                  0.9714         0.556734   
     40. B(H  36,C  11)                  0.9956         0.509442   
     41. B(H  37,C  11)                  0.9638         0.572551   
     42. B(H  38,C  11)                  0.9631         0.574061   
     43. B(H  39,C  12)                  0.9868         0.526068   
     44. B(H  40,C  12)                  0.9049         0.710903   
     45. B(H  41,C  14)                  0.9274         0.654416   
     46. B(H  42,C  14)                  1.0570         0.406561   
     47. B(H  43,C  14)                  0.8266         0.947706   
     48. B(H  44,C  15)                  1.0606         0.401186   
     49. B(H  45,C  15)                  0.9665         0.566824   
     50. B(H  46,C  15)                  0.9143         0.686598   
     51. B(H  47,C  16)                  1.0767         0.378178   
     52. B(H  48,C  16)                  1.1826         0.256254   
     53. B(H  49,C  18)                  0.8130         0.996294   
     54. B(H  50,C  18)                  1.1280         0.313169   
     55. B(H  51,C  18)                  0.8253         0.952127   
     56. B(H  52,C  19)                  1.0014         0.498588   
     57. B(H  53,C  19)                  0.8988         0.726958   
     58. B(H  54,C  19)                  0.8930         0.742574   
     59. B(H  55,C  20)                  1.0122         0.479312   
     60. B(H  56,C  20)                  1.1640         0.274412   
     61. B(H  57,C  22)                  0.8394         0.904110   
     62. B(H  58,C  22)                  0.8944         0.738789   
     63. B(H  59,C  22)                  0.8452         0.885145   
     64. B(H  60,C  23)                  0.7645         1.190484   
     65. B(H  61,C  23)                  0.9629         0.574404   
     66. B(H  62,C  23)                  1.0572         0.406173   
     67. B(H  63,C  24)                  0.9966         0.507470   
     68. B(H  64,C  24)                  0.9916         0.516867   
     69. B(H  64,P  21)                  1.8437         0.075929   
     70. A(P  13,Mn  0,P  17)           96.2445         0.656958   
     71. A(P  17,Mn  0,P  21)           83.3256         0.689653   
     72. A(C   1,Mn  0,C   8)           84.6513         0.488044   
     73. A(C   8,Mn  0,P  21)           88.1600         0.593606   
     74. A(C   1,Mn  0,P  13)           89.1709         0.563838   
     75. A(P   9,Mn  0,P  17)          100.7987         0.689973   
     76. A(C   1,Mn  0,P  21)           87.4024         0.591173   
     77. A(P  13,Mn  0,P  21)          100.7088         0.689449   
     78. A(P   9,Mn  0,P  21)          173.9982         0.724354   
     79. A(C   1,Mn  0,P   9)           88.1695         0.591441   
     80. A(C   8,Mn  0,P  17)           91.2599         0.566300   
     81. A(P   9,Mn  0,P  13)           83.2706         0.689769   
     82. A(C   8,Mn  0,P   9)           87.3952         0.593874   
     83. A(C   1,Mn  0,P  17)          169.9863         0.563999   
     84. A(C   8,Mn  0,P  13)          168.9670         0.566138   
     85. A(C   2,C   1,H  26)          109.2717         0.351276   
     86. A(Mn  0,C   1,C   2)          108.8815         0.426670   
     87. A(C   2,C   1,H  25)          110.3390         0.351057   
     88. A(H  25,C   1,H  26)           96.9030         0.328383   
     89. A(Mn  0,C   1,H  26)          113.8697         0.397453   
     90. A(Mn  0,C   1,H  25)          116.9965         0.397196   
     91. A(C   1,C   2,C   7)          118.5511         0.403646   
     92. A(C   1,C   2,C   3)          123.2162         0.405307   
     93. A(C   3,C   2,C   7)          118.2142         0.435634   
     94. A(C   2,C   3,H  27)          114.4742         0.414389   
     95. A(C   4,C   3,H  27)          123.1244         0.418613   
     96. A(C   2,C   3,C   4)          122.2984         0.441986   
     97. A(C   3,C   4,H  28)          119.5463         0.408037   
     98. A(C   3,C   4,C   5)          119.4269         0.444995   
     99. A(C   5,C   4,H  28)          121.0218         0.406633   
    100. A(C   4,C   5,H  29)          120.5076         0.389486   
    101. A(C   4,C   5,C   6)          119.6316         0.444659   
    102. A(C   6,C   5,H  29)          119.8126         0.390530   
    103. A(C   5,C   6,C   7)          121.2899         0.438514   
    104. A(C   5,C   6,H  30)          118.9918         0.400891   
    105. A(C   7,C   6,H  30)          119.6888         0.394441   
    106. A(C   2,C   7,C   8)          118.9851         0.403738   
    107. A(C   6,C   7,C   8)          121.8577         0.402582   
    108. A(C   2,C   7,C   6)          119.1217         0.432547   
    109. A(H  31,C   8,H  32)          103.2392         0.348233   
    110. A(Mn  0,C   8,C   7)          108.8604         0.428404   
    111. A(C   7,C   8,H  32)          110.4013         0.367015   
    112. A(Mn  0,C   8,H  31)          115.8308         0.405475   
    113. A(Mn  0,C   8,H  32)          107.8771         0.417451   
    114. A(C   7,C   8,H  31)          110.4411         0.356878   
    115. A(C  11,P   9,C  12)          100.5003         0.427646   
    116. A(C  10,P   9,C  12)           99.3472         0.429356   
    117. A(Mn  0,P   9,C  12)          110.9676         0.547151   
    118. A(C  10,P   9,C  11)           97.8531         0.438067   
    119. A(Mn  0,P   9,C  11)          121.8850         0.558877   
    120. A(Mn  0,P   9,C  10)          122.1755         0.561249   
    121. A(H  34,C  10,H  35)           92.9782         0.362580   
    122. A(H  33,C  10,H  35)          106.3952         0.326921   
    123. A(P   9,C  10,H  35)          108.3069         0.382683   
    124. A(H  33,C  10,H  34)          118.4450         0.353762   
    125. A(P   9,C  10,H  34)          117.9986         0.415814   
    126. A(P   9,C  10,H  33)          110.1102         0.373217   
    127. A(P   9,C  11,H  38)          100.9641         0.383242   
    128. A(H  37,C  11,H  38)          102.8408         0.338132   
    129. A(H  36,C  11,H  38)          124.0337         0.331633   
    130. A(H  36,C  11,H  37)          117.5308         0.331488   
    131. A(P   9,C  11,H  37)          111.9373         0.383067   
    132. A(P   9,C  11,H  36)           98.0969         0.375396   
    133. A(P   9,C  12,C  16)          114.9584         0.435262   
    134. A(H  39,C  12,H  40)          105.2666         0.345521   
    135. A(C  16,C  12,H  40)           92.3429         0.404776   
    136. A(P   9,C  12,H  40)          116.3525         0.390124   
    137. A(C  16,C  12,H  39)          126.2027         0.383973   
    138. A(P   9,C  12,H  39)          101.9055         0.370286   
    139. A(C  15,P  13,C  16)           97.6106         0.432806   
    140. A(C  14,P  13,C  16)          100.4285         0.435737   
    141. A(Mn  0,P  13,C  16)          110.1224         0.529933   
    142. A(C  14,P  13,C  15)           98.9283         0.437127   
    143. A(Mn  0,P  13,C  15)          126.7966         0.531700   
    144. A(Mn  0,P  13,C  14)          118.3588         0.535474   
    145. A(H  42,C  14,H  43)           94.9163         0.347258   
    146. A(P  13,C  14,H  43)          116.2321         0.420386   
    147. A(H  41,C  14,H  42)          113.3440         0.326495   
    148. A(P  13,C  14,H  42)           96.6080         0.362618   
    149. A(P  13,C  14,H  41)          113.8130         0.393743   
    150. A(H  41,C  14,H  43)          117.9362         0.376636   
    151. A(H  45,C  15,H  46)          121.8285         0.347844   
    152. A(H  44,C  15,H  46)          100.2854         0.328367   
    153. A(P  13,C  15,H  46)          111.0397         0.394468   
    154. A(H  44,C  15,H  45)          108.2230         0.318203   
    155. A(P  13,C  15,H  45)          109.6859         0.381498   
    156. A(P  13,C  15,H  44)          103.8550         0.359488   
    157. A(H  47,C  16,H  48)          101.8589         0.277964   
    158. A(P  13,C  16,H  48)          113.6978         0.332416   
    159. A(C  12,C  16,H  48)           87.7741         0.339657   
    160. A(P  13,C  16,H  47)          116.0401         0.354831   
    161. A(C  12,C  16,H  47)          118.5218         0.362739   
    162. A(C  12,C  16,P  13)          114.3671         0.441620   
    163. A(C  19,P  17,C  20)          101.9329         0.429304   
    164. A(C  18,P  17,C  20)          100.1496         0.420350   
    165. A(Mn  0,P  17,C  20)          110.1244         0.523476   
    166. A(C  18,P  17,C  19)           97.1344         0.428379   
    167. A(Mn  0,P  17,C  19)          116.9131         0.534005   
    168. A(Mn  0,P  17,C  18)          126.8805         0.522295   
    169. A(H  50,C  18,H  51)          119.2190         0.332700   
    170. A(H  49,C  18,H  51)           97.0079         0.405676   
    171. A(P  17,C  18,H  51)          106.6730         0.410834   
    172. A(H  49,C  18,H  50)          122.1394         0.335214   
    173. A(P  17,C  18,H  50)          108.8884         0.339224   
    174. A(P  17,C  18,H  49)          100.5303         0.414154   
    175. A(H  52,C  19,H  54)          114.7889         0.344937   
    176. A(P  17,C  19,H  54)          105.2257         0.401448   
    177. A(H  52,C  19,H  53)          107.2139         0.343709   
    178. A(P  17,C  19,H  53)          118.0356         0.399948   
    179. A(P  17,C  19,H  52)          102.3510         0.374510   
    180. A(H  53,C  19,H  54)          109.3930         0.367740   
    181. A(H  55,C  20,H  56)          104.9754         0.291490   
    182. A(C  24,C  20,H  56)          101.7977         0.314456   
    183. A(P  17,C  20,H  56)          112.4077         0.332515   
    184. A(C  24,C  20,H  55)          117.1967         0.344791   
    185. A(P  17,C  20,H  55)          113.0969         0.365279   
    186. A(P  17,C  20,C  24)          106.8975         0.396614   
    187. A(C  23,P  21,C  24)          102.8414         0.421611   
    188. A(C  22,P  21,C  24)          100.0842         0.418031   
    189. A(Mn  0,P  21,C  24)          110.4516         0.535934   
    190. A(C  22,P  21,C  23)           97.6856         0.436913   
    191. A(Mn  0,P  21,C  23)          120.7287         0.561582   
    192. A(Mn  0,P  21,C  22)          121.7266         0.556496   
    193. A(C  24,P  21,H  64)           30.9083         0.286965   
    194. A(C  23,P  21,H  64)           71.9643         0.298326   
    195. A(C  22,P  21,H  64)          102.6187         0.296073   
    196. A(Mn  0,P  21,H  64)          128.7804         0.370274   
    197. A(H  57,C  22,H  58)          103.3351         0.381506   
    198. A(P  21,C  22,H  58)          109.0687         0.399118   
    199. A(P  21,C  22,H  57)          110.8012         0.413622   
    200. A(H  58,C  22,H  59)          121.7566         0.380106   
    201. A(H  57,C  22,H  59)          105.7030         0.393720   
    202. A(P  21,C  22,H  59)          105.9723         0.412068   
    203. A(H  61,C  23,H  62)           98.5759         0.319537   
    204. A(H  60,C  23,H  62)          112.0461         0.360880   
    205. A(P  21,C  23,H  62)          106.0481         0.362793   
    206. A(H  60,C  23,H  61)           87.1454         0.383065   
    207. A(P  21,C  23,H  61)          119.2118         0.385134   
    208. A(P  21,C  23,H  60)          129.2494         0.438241   
    209. A(C  20,C  24,P  21)          108.3243         0.388311   
    210. A(H  63,C  24,H  64)           79.2630         0.325729   
    211. A(P  21,C  24,H  64)           72.7570         0.362451   
    212. A(C  20,C  24,H  64)           98.3542         0.349195   
    213. A(P  21,C  24,H  63)          122.5174         0.361318   
    214. A(C  20,C  24,H  63)          124.9272         0.348117   
    215. A(P  21,H  64,C  24)           76.3347         0.261094   
    216. D(C   2,C   1,Mn  0,P  13)   -173.1763         0.002499   
    217. D(C   2,C   1,Mn  0,P   9)    -89.8832         0.002499   
    218. D(C   2,C   1,Mn  0,P  21)     86.0644         0.002499   
    219. D(H  25,C   1,Mn  0,C   8)    123.5801         0.002499   
    220. D(H  25,C   1,Mn  0,P   9)     36.0260         0.002499   
    221. D(C   2,C   1,Mn  0,C   8)     -2.3291         0.002499   
    222. D(C   2,C   1,Mn  0,P  17)     63.8909         0.002499   
    223. D(H  25,C   1,Mn  0,P  13)    -47.2671         0.002499   
    224. D(C   3,C   2,C   1,H  25)     54.1038         0.012630   
    225. D(C   3,C   2,C   1,Mn  0)   -176.2212         0.012630   
    226. D(C   3,C   2,C   1,H  26)    -51.2866         0.012630   
    227. D(C   7,C   2,C   1,H  25)   -127.4904         0.012630   
    228. D(C   7,C   2,C   1,Mn  0)      2.1846         0.012630   
    229. D(C   4,C   3,C   2,C   7)     -0.8875         0.027852   
    230. D(H  27,C   3,C   2,C   7)   -177.3038         0.027852   
    231. D(C   4,C   3,C   2,C   1)    177.5233         0.027852   
    232. D(H  27,C   3,C   2,C   1)      1.1071         0.027852   
    233. D(H  28,C   4,C   3,C   2)   -178.7809         0.031467   
    234. D(H  28,C   4,C   3,H  27)     -2.6761         0.031467   
    235. D(C   5,C   4,C   3,C   2)      0.4085         0.031467   
    236. D(C   5,C   4,C   3,H  27)    176.5134         0.031467   
    237. D(H  29,C   5,C   4,H  28)      2.4909         0.030176   
    238. D(H  29,C   5,C   4,C   3)   -176.6863         0.030176   
    239. D(C   6,C   5,C   4,C   3)      0.7829         0.030176   
    240. D(C   6,C   5,C   4,H  28)    179.9601         0.030176   
    241. D(H  30,C   6,C   5,C   4)    176.5301         0.031186   
    242. D(C   7,C   6,C   5,H  29)    176.0006         0.031186   
    243. D(C   7,C   6,C   5,C   4)     -1.4864         0.031186   
    244. D(H  30,C   6,C   5,H  29)     -5.9829         0.031186   
    245. D(C   6,C   7,C   2,C   3)      0.1877         0.026508   
    246. D(C   6,C   7,C   2,C   1)   -178.2988         0.026508   
    247. D(C   8,C   7,C   6,H  30)      5.1789         0.025612   
    248. D(C   8,C   7,C   6,C   5)   -176.8183         0.025612   
    249. D(C   2,C   7,C   6,C   5)      0.9907         0.025612   
    250. D(C   2,C   7,C   6,H  30)   -177.0122         0.025612   
    251. D(C   8,C   7,C   2,C   3)    178.0603         0.026508   
    252. D(C   8,C   7,C   2,C   1)     -0.4262         0.026508   
    253. D(H  32,C   8,C   7,C   2)    116.6641         0.012661   
    254. D(H  31,C   8,C   7,C   6)     48.0156         0.012661   
    255. D(H  31,C   8,C   7,C   2)   -129.7962         0.012661   
    256. D(Mn  0,C   8,C   7,C   2)     -1.5751         0.012661   
    257. D(H  31,C   8,Mn  0,P   9)   -144.3382         0.002542   
    258. D(C   7,C   8,Mn  0,P  13)     58.3433         0.002542   
    259. D(C   7,C   8,Mn  0,P  17)   -168.7110         0.002542   
    260. D(C   7,C   8,Mn  0,P  21)    -85.4313         0.002542   
    261. D(Mn  0,C   8,C   7,C   6)    176.2368         0.012661   
    262. D(H  31,C   8,Mn  0,P  13)   -176.5296         0.002542   
    263. D(H  31,C   8,Mn  0,C   1)    127.2580         0.002542   
    264. D(C   7,C   8,Mn  0,P   9)     90.5347         0.002542   
    265. D(C   7,C   8,Mn  0,C   1)      2.1309         0.002542   
    266. D(C  11,P   9,Mn  0,P  13)   -111.2601         0.002923   
    267. D(C  11,P   9,Mn  0,C   8)     74.6324         0.002923   
    268. D(C  11,P   9,Mn  0,C   1)    159.3591         0.002923   
    269. D(C  10,P   9,Mn  0,P  21)     -8.6646         0.002923   
    270. D(C  10,P   9,Mn  0,P  17)   -141.7095         0.002923   
    271. D(C  10,P   9,Mn  0,C   8)    -50.9228         0.002923   
    272. D(C  10,P   9,Mn  0,C   1)     33.8039         0.002923   
    273. D(C  10,P   9,Mn  0,P  13)    123.1847         0.002923   
    274. D(H  34,C  10,P   9,C  11)   -171.0546         0.004460   
    275. D(H  34,C  10,P   9,Mn  0)    -35.2685         0.004460   
    276. D(H  33,C  10,P   9,C  11)     48.6678         0.004460   
    277. D(H  33,C  10,P   9,Mn  0)   -175.5461         0.004460   
    278. D(H  33,C  10,P   9,C  12)    -53.4044         0.004460   
    279. D(H  34,C  10,P   9,C  12)     86.8732         0.004460   
    280. D(H  37,C  11,P   9,C  12)     49.3807         0.004327   
    281. D(H  37,C  11,P   9,C  10)    -51.7071         0.004327   
    282. D(H  37,C  11,P   9,Mn  0)    172.3305         0.004327   
    283. D(H  36,C  11,P   9,C  12)    173.4795         0.004327   
    284. D(H  36,C  11,P   9,C  10)     72.3918         0.004327   
    285. D(H  36,C  11,P   9,Mn  0)    -63.5706         0.004327   
    286. D(H  39,C  12,P   9,C  11)    -32.6615         0.003746   
    287. D(H  39,C  12,P   9,Mn  0)   -162.9272         0.003746   
    288. D(H  39,C  12,P   9,C  10)     67.2042         0.003746   
    289. D(C  16,C  12,P   9,C  11)    107.1506         0.003746   
    290. D(C  16,C  12,P   9,C  10)   -152.9837         0.003746   
    291. D(C  16,C  12,P   9,Mn  0)    -23.1151         0.003746   
    292. D(C  15,P  13,Mn  0,P   9)    122.5181         0.002375   
    293. D(C  15,P  13,Mn  0,C   8)    154.9224         0.002375   
    294. D(C  15,P  13,Mn  0,C   1)   -149.2274         0.002375   
    295. D(C  14,P  13,Mn  0,P  21)     66.5801         0.002375   
    296. D(C  14,P  13,Mn  0,P  17)    150.9387         0.002375   
    297. D(C  14,P  13,Mn  0,P   9)   -108.8735         0.002375   
    298. D(C  14,P  13,Mn  0,C   8)    -76.4692         0.002375   
    299. D(C  14,P  13,Mn  0,C   1)    -20.6190         0.002375   
    300. D(H  42,C  14,P  13,C  16)    168.1099         0.004470   
    301. D(H  42,C  14,P  13,C  15)     68.5992         0.004470   
    302. D(H  42,C  14,P  13,Mn  0)    -72.0981         0.004470   
    303. D(H  41,C  14,P  13,C  16)     48.9567         0.004470   
    304. D(H  41,C  14,P  13,C  15)    -50.5539         0.004470   
    305. D(H  41,C  14,P  13,Mn  0)    168.7487         0.004470   
    306. D(H  45,C  15,P  13,C  16)    -62.9673         0.004249   
    307. D(H  45,C  15,P  13,C  14)     38.9118         0.004249   
    308. D(H  45,C  15,P  13,Mn  0)    174.7982         0.004249   
    309. D(H  44,C  15,P  13,C  16)     52.5207         0.004249   
    310. D(H  44,C  15,P  13,C  14)    154.3998         0.004249   
    311. D(H  44,C  15,P  13,Mn  0)    -69.7138         0.004249   
    312. D(H  47,C  16,P  13,C  15)     60.4676         0.004150   
    313. D(H  47,C  16,P  13,Mn  0)   -165.7009         0.004150   
    314. D(C  12,C  16,P  13,C  15)   -155.9500         0.004150   
    315. D(C  12,C  16,P  13,C  14)    103.4588         0.004150   
    316. D(C  12,C  16,P  13,Mn  0)    -22.1185         0.004150   
    317. D(H  47,C  16,C  12,H  40)     50.5370         0.039628   
    318. D(H  47,C  16,C  12,H  39)    -60.3504         0.039628   
    319. D(H  47,C  16,C  12,P   9)    171.1387         0.039628   
    320. D(P  13,C  16,C  12,H  40)    -92.0845         0.039628   
    321. D(H  47,C  16,P  13,C  14)    -40.1236         0.004150   
    322. D(P  13,C  16,C  12,H  39)    157.0282         0.039628   
    323. D(P  13,C  16,C  12,P   9)     28.5173         0.039628   
    324. D(C  19,P  17,Mn  0,P   9)     72.9121         0.002378   
    325. D(C  19,P  17,Mn  0,C   8)    -14.6760         0.002378   
    326. D(C  19,P  17,Mn  0,C   1)    -80.3667         0.002378   
    327. D(C  18,P  17,Mn  0,P  21)    133.6148         0.002378   
    328. D(C  18,P  17,Mn  0,P  13)     33.5130         0.002378   
    329. D(C  18,P  17,Mn  0,P   9)    -50.7977         0.002378   
    330. D(C  18,P  17,Mn  0,C   8)   -138.3858         0.002378   
    331. D(C  18,P  17,Mn  0,C   1)    155.9235         0.002378   
    332. D(H  50,C  18,P  17,C  20)   -172.7758         0.003754   
    333. D(H  50,C  18,P  17,C  19)    -69.2373         0.003754   
    334. D(H  50,C  18,P  17,Mn  0)     62.3840         0.003754   
    335. D(H  49,C  18,P  17,C  20)     57.7679         0.003754   
    336. D(H  49,C  18,P  17,C  19)    161.3064         0.003754   
    337. D(H  49,C  18,P  17,Mn  0)    -67.0724         0.003754   
    338. D(H  53,C  19,P  17,C  18)   -172.3640         0.004373   
    339. D(H  53,C  19,P  17,Mn  0)     49.7484         0.004373   
    340. D(H  52,C  19,P  17,C  20)    172.2633         0.004373   
    341. D(H  52,C  19,P  17,C  18)     70.2599         0.004373   
    342. D(H  52,C  19,P  17,Mn  0)    -67.6277         0.004373   
    343. D(H  53,C  19,P  17,C  20)    -70.3607         0.004373   
    344. D(H  55,C  20,P  17,C  19)    -45.9215         0.003810   
    345. D(H  55,C  20,P  17,C  18)     53.6798         0.003810   
    346. D(H  55,C  20,P  17,Mn  0)   -170.6827         0.003810   
    347. D(C  24,C  20,P  17,C  19)     84.5332         0.003810   
    348. D(C  24,C  20,P  17,C  18)   -175.8655         0.003810   
    349. D(C  24,C  20,P  17,Mn  0)    -40.2280         0.003810   
    350. D(C  23,P  21,Mn  0,P   9)    117.6471         0.002996   
    351. D(C  23,P  21,Mn  0,C   8)    159.8783         0.002996   
    352. D(C  23,P  21,Mn  0,C   1)     75.1514         0.002996   
    353. D(C  22,P  21,Mn  0,P  17)    127.9667         0.002996   
    354. D(C  22,P  21,Mn  0,P  13)   -136.9085         0.002996   
    355. D(C  22,P  21,Mn  0,P   9)     -5.7491         0.002996   
    356. D(C  22,P  21,Mn  0,C   8)     36.4821         0.002996   
    357. D(C  23,P  21,Mn  0,P  13)    -13.5123         0.002996   
    358. D(C  22,P  21,Mn  0,C   1)    -48.2448         0.002996   
    359. D(H  58,C  22,P  21,C  24)   -168.1783         0.004400   
    360. D(H  58,C  22,P  21,C  23)    -63.5951         0.004400   
    361. D(H  58,C  22,P  21,Mn  0)     70.0051         0.004400   
    362. D(H  57,C  22,P  21,H  64)    -23.6389         0.004400   
    363. D(H  57,C  22,P  21,C  24)    -55.0764         0.004400   
    364. D(H  57,C  22,P  21,C  23)     49.5069         0.004400   
    365. D(H  57,C  22,P  21,Mn  0)   -176.8929         0.004400   
    366. D(H  61,C  23,P  21,C  24)   -179.6439         0.004701   
    367. D(H  61,C  23,P  21,C  22)     78.1179         0.004701   
    368. D(H  61,C  23,P  21,Mn  0)    -56.1108         0.004701   
    369. D(H  60,C  23,P  21,H  64)     66.4184         0.004701   
    370. D(H  60,C  23,P  21,C  24)     67.8268         0.004701   
    371. D(H  60,C  23,P  21,C  22)    -34.4114         0.004701   
    372. D(H  60,C  23,P  21,Mn  0)   -168.6400         0.004701   
    373. D(H  63,C  24,P  21,C  23)    -67.1912         0.003428   
    374. D(H  63,C  24,P  21,C  22)     33.1704         0.003428   
    375. D(H  63,C  24,P  21,Mn  0)    162.6921         0.003428   
    376. D(C  20,C  24,P  21,H  64)     93.2942         0.003428   
    377. D(C  20,C  24,P  21,C  23)     90.6864         0.003428   
    378. D(C  20,C  24,P  21,C  22)   -168.9520         0.003428   
    379. D(C  20,C  24,P  21,Mn  0)    -39.4303         0.003428   
    380. D(H  63,C  24,C  20,H  56)     87.7367         0.013049   
    381. D(H  63,C  24,C  20,H  55)    -26.0994         0.013049   
    382. D(H  63,C  24,C  20,P  17)   -154.2002         0.013049   
    383. D(P  21,C  24,C  20,H  56)    -69.4760         0.013049   
    384. D(P  21,C  24,C  20,H  55)    176.6878         0.013049   
    385. D(P  21,C  24,C  20,P  17)     48.5870         0.013049   
    386. D(P  21,H  64,C  24,H  63)    129.1783         0.299007   
    387. D(P  21,H  64,C  24,C  20)   -106.6869         0.299007   
    388. D(C  24,H  64,P  21,C  23)    177.3260         0.002067   
    389. D(C  24,H  64,P  21,C  22)    -88.5891         0.002067   
    390. D(C  24,H  64,P  21,Mn  0)     62.0024         0.002067   
    -----------------------------------------------------------------

Number of atoms                         .... 65
Number of degrees of freedom            .... 390


         *************************************************************
         *                GEOMETRY OPTIMIZATION CYCLE   1            *
         *************************************************************
---------------------------------
CARTESIAN COORDINATES (ANGSTROEM)
---------------------------------
  Mn    -2.423000    1.385700   12.798100
  C     -4.331400    1.560100   13.683100
  C     -4.373500    2.817800   14.504300
  C     -5.464700    3.184200   15.276700
  C     -5.464100    4.310700   16.057600
  C     -4.350500    5.118700   16.077800
  C     -3.263900    4.795500   15.305300
  C     -3.251000    3.641800   14.517700
  C     -2.042400    3.238600   13.721700
  P     -3.206200    2.531400   11.053300
  C     -4.443300    3.840200   11.236300
  C     -2.101600    3.393800    9.897900
  C     -4.112900    1.422500    9.887800
  P     -3.179000   -0.425600   11.604100
  C     -4.641200   -1.304100   12.208600
  C     -2.197000   -1.856100   11.054900
  C     -3.769300    0.107200    9.961700
  P     -0.212900    1.166500   12.212000
  C      0.450900    0.550400   10.603200
  C      0.818400    2.654600   12.326200
  C      0.641100    0.020800   13.375800
  P     -1.753400    0.392000   14.678900
  C     -2.116900    1.099300   16.317900
  C     -2.227800   -1.315300   15.041600
  C      0.119800    0.329600   14.756200
  H     -5.111600    1.518500   13.078500
  H     -4.580100    0.792000   14.250700
  H     -6.104400    2.633800   15.261600
  H     -6.173600    4.501100   16.548000
  H     -4.315300    5.877200   16.648700
  H     -2.551400    5.360300   15.288500
  H     -1.251500    3.280200   14.267500
  H     -1.874700    3.853000   13.061700
  H     -4.720500    4.185900   10.327800
  H     -5.036400    3.744200   11.827400
  H     -4.030600    4.587500   11.699800
  H     -1.715300    4.051500   10.537700
  H     -2.578100    3.741000    9.135500
  H     -1.612000    2.653000    9.525100
  H     -4.145300    1.971300    9.068300
  H     -4.976900    1.246500   10.091000
  H     -4.989000   -1.913700   11.602400
  H     -4.174100   -1.760100   13.039900
  H     -5.172900   -0.860900   12.660400
  H     -1.563400   -1.456100   10.304300
  H     -2.777100   -2.510600   10.643500
  H     -1.576700   -2.089700   11.684700
  H     -4.358800   -0.609600    9.415900
  H     -2.898500    0.339200    9.195900
  H      0.215600   -0.227200   10.633400
  H      0.118200    1.246500    9.780300
  H      1.257400    0.416000   10.715700
  H      0.439600    3.233800   11.602400
  H      0.791400    3.129800   13.088600
  H      1.653400    2.372900   12.181800
  H      1.645700    0.006400   13.253200
  H      0.305200   -1.084900   13.236400
  H     -1.766700    0.638400   16.925800
  H     -2.993100    1.024100   16.480800
  H     -1.722600    1.846500   16.341400
  H     -2.157300   -1.708900   15.693200
  H     -3.161400   -1.550500   15.056800
  H     -1.935400   -1.884900   14.200300
  H      0.615700    0.161600   15.604200
  H     -0.214300   -0.574400   14.989600

----------------------------
CARTESIAN COORDINATES (A.U.)
----------------------------
  NO LB      ZA    FRAG     MASS         X           Y           Z
   0 Mn   25.0000    0    54.940   -4.578806    2.618594   24.184904
   1 C     6.0000    0    12.011   -8.185160    2.948162   25.857312
   2 C     6.0000    0    12.011   -8.264717    5.324870   27.409155
   3 C     6.0000    0    12.011  -10.326786    6.017266   28.868779
   4 C     6.0000    0    12.011  -10.325653    8.146042   30.344466
   5 C     6.0000    0    12.011   -8.221254    9.672941   30.382639
   6 C     6.0000    0    12.011   -6.167877    9.062182   28.922825
   7 C     6.0000    0    12.011   -6.143500    6.882005   27.434477
   8 C     6.0000    0    12.011   -3.859577    6.120067   25.930255
   9 P    15.0000    0    30.974   -6.058840    4.783653   20.887710
  10 C     6.0000    0    12.011   -8.396620    7.256926   21.233530
  11 C     6.0000    0    12.011   -3.971448    6.413353   18.704320
  12 C     6.0000    0    12.011   -7.772255    2.688135   18.685234
  13 P    15.0000    0    30.974   -6.007439   -0.804267   21.928571
  14 C     6.0000    0    12.011   -8.770597   -2.464392   23.070910
  15 C     6.0000    0    12.011   -4.151728   -3.507521   20.890733
  16 C     6.0000    0    12.011   -7.122945    0.202579   18.824885
  17 P    15.0000    0    30.974   -0.402323    2.204366   23.077336
  18 C     6.0000    0    12.011    0.852078    1.040105   20.037144
  19 C     6.0000    0    12.011    1.546552    5.016467   23.293142
  20 C     6.0000    0    12.011    1.211503    0.039306   25.276599
  21 P    15.0000    0    30.974   -3.313446    0.740773   27.739101
  22 C     6.0000    0    12.011   -4.000361    2.077376   30.836362
  23 C     6.0000    0    12.011   -4.209932   -2.485557   28.424505
  24 C     6.0000    0    12.011    0.226389    0.622854   27.885177
  25 H     1.0000    0     1.008   -9.659524    2.869549   24.714783
  26 H     1.0000    0     1.008   -8.655135    1.496663   26.929920
  27 H     1.0000    0     1.008  -11.535644    4.977161   28.840244
  28 H     1.0000    0     1.008  -11.666413    8.505846   31.271188
  29 H     1.0000    0     1.008   -8.154735   11.106298   31.461483
  30 H     1.0000    0     1.008   -4.821447   10.129499   28.891078
  31 H     1.0000    0     1.008   -2.364992    6.198680   26.961668
  32 H     1.0000    0     1.008   -3.542670    7.281115   24.683036
  33 H     1.0000    0     1.008   -8.920452    7.910205   19.516714
  34 H     1.0000    0     1.008   -9.517417    7.075513   22.350547
  35 H     1.0000    0     1.008   -7.616730    8.669119   22.109418
  36 H     1.0000    0     1.008   -3.241447    7.656225   19.913367
  37 H     1.0000    0     1.008   -4.871903    7.069465   17.263593
  38 H     1.0000    0     1.008   -3.046239    5.013443   17.999830
  39 H     1.0000    0     1.008   -7.833482    3.725217   17.136604
  40 H     1.0000    0     1.008   -9.404978    2.355544   19.069226
  41 H     1.0000    0     1.008   -9.427844   -3.616369   21.925358
  42 H     1.0000    0     1.008   -7.887906   -3.326107   24.641840
  43 H     1.0000    0     1.008   -9.775364   -1.626865   23.924689
  44 H     1.0000    0     1.008   -2.954398   -2.751630   19.472305
  45 H     1.0000    0     1.008   -5.247958   -4.744346   20.113300
  46 H     1.0000    0     1.008   -2.979531   -3.948961   22.080883
  47 H     1.0000    0     1.008   -8.236938   -1.151977   17.793472
  48 H     1.0000    0     1.008   -5.477371    0.640995   17.377733
  49 H     1.0000    0     1.008    0.407425   -0.429346   20.094214
  50 H     1.0000    0     1.008    0.223366    2.355544   18.482089
  51 H     1.0000    0     1.008    2.376142    0.786126   20.249738
  52 H     1.0000    0     1.008    0.830724    6.110996   21.925358
  53 H     1.0000    0     1.008    1.495529    5.914465   24.733869
  54 H     1.0000    0     1.008    3.124473    4.484131   23.020266
  55 H     1.0000    0     1.008    3.109922    0.012094   25.044918
  56 H     1.0000    0     1.008    0.576744   -2.050164   25.013171
  57 H     1.0000    0     1.008   -3.338579    1.206401   31.985127
  58 H     1.0000    0     1.008   -5.656139    1.935269   31.144198
  59 H     1.0000    0     1.008   -3.255242    3.489379   30.880771
  60 H     1.0000    0     1.008   -4.076706   -3.229353   29.655850
  61 H     1.0000    0     1.008   -5.974180   -2.930020   28.453228
  62 H     1.0000    0     1.008   -3.657376   -3.561945   26.834678
  63 H     1.0000    0     1.008    1.163504    0.305380   29.487665
  64 H     1.0000    0     1.008   -0.404968   -1.085459   28.326239

--------------------------------
INTERNAL COORDINATES (ANGSTROEM)
--------------------------------
 Mn     0   0   0     0.000000000000     0.00000000     0.00000000
 C      1   0   0     2.110836545069     0.00000000     0.00000000
 C      2   1   0     1.502648042623   108.88153534     0.00000000
 C      3   2   1     1.386206391559   123.21618340   183.77877556
 C      4   3   2     1.370695961911   122.29844836   177.52334978
 C      5   4   3     1.376000363372   119.42690494     0.40849097
 C      6   5   4     1.371828724732   119.63159073     0.78294437
 C      3   2   1     1.392537902536   118.55109846     2.18460158
 C      8   3   2     1.502298305930   118.98512749   359.57377567
 P      1   2   3     2.229429920406    88.16950889   270.11683271
 C     10   1   2     1.810210719778   122.17553272    33.80389950
 C     10   1   2     1.816266522292   121.88496437   159.35905966
 C     10   1   2     1.846660323395   110.96757099   277.27882947
 P      1   2   3     2.297385403018    89.17091545   186.82374115
 C     14   1   2     1.809754497163   118.35884980   339.38099901
 C     14   1   2     1.819965628796   126.79661950   210.77256926
 C     13  10   1     1.361446385283   114.95843564   336.88486551
 P      1   2   3     2.296977113512   169.98632073    63.89085749
 C     18   1   9     1.846198009424   126.88047809   221.61420590
 C     18   1   9     1.814128699955   116.91312282   345.32397637
 C     18   1   9     1.842925644186   110.12441528   100.97975478
 P      1   2   3     2.230070063922    87.40238471    86.06437991
 C     22   1   2     1.821737231326   121.72661835   311.75522687
 C     22   1   2     1.808723290058   120.72868946    75.15141600
 C     21  18   1     1.507519581962   106.89751721   319.77203002
 H      2   1   3     0.987918903554   116.99646044   125.90920319
 H      2   1   3     0.986913907086   113.86967496   237.80598572
 H      4   3   2     0.844028589563   114.47420564     1.10707159
 H      5   4   3     0.883252268607   119.54626593   181.21905297
 H      6   5   4     0.949993736821   120.50757744   183.31372681
 H      7   6   5     0.909361055907   118.99176323   176.53009261
 H      9   8   3     0.961847706240   110.44110138   230.20379763
 H      9   8   3     0.917175364911   110.40127886   116.66412268
 H     11  10   1     1.010801948949   110.11015235   184.45393721
 H     11  10   1     0.842842108583   117.99861785   324.73153619
 H     11  10   1     0.971396330032   108.30690419    68.49341166
 H     12  10   1     0.995560656113    98.09694155   296.42939783
 H     12  10   1     0.963770641802   111.93734696   172.33051478
 H     12  10   1     0.963053809504   100.96407826    63.54229880
 H     13  10   1     0.986818853691   101.90546755   197.07282378
 H     13  10   1     0.904854817084   116.35247295    83.19751140
 H     15  14   1     0.927391740313   113.81298707   168.74874497
 H     15  14   1     1.056966461152    96.60801242   287.90188150
 H     15  14   1     0.826592021495   116.23212183    26.71795307
 H     16  14   1     1.060589138168   103.85499114   290.28617700
 H     16  14   1     0.966507227081   109.68585091   174.79819127
 H     16  14   1     0.914324389919   111.03965310    37.25860045
 H     17  13  10     1.076666211042   118.52178660   171.13873636
 H     17  13  10     1.182609944149    87.77405037   273.43345729
 H     19  18   1     0.812982096974   100.53026204   292.92762623
 H     19  18   1     1.128011041613   108.88836084    62.38396266
 H     19  18   1     0.825325305561   106.67304350   192.25398589
 H     20  18   1     1.001423247184   102.35095912   292.37234806
 H     20  18   1     0.898775722859   118.03563134    49.74837970
 H     20  18   1     0.892990061535   105.22569570   172.07943696
 H     21  18   1     1.012155758764   113.09690337   189.31734820
 H     21  18   1     1.163973221341   112.40774182    70.65067728
 H     23  22   1     0.839411257966   110.80124135   183.10711493
 H     23  22   1     0.894381288937   109.06865600    70.00513056
 H     23  22   1     0.845181980404   105.97229641   297.30450967
 H     24  22   1     0.764508842330   129.24935765   191.35996077
 H     24  22   1     0.962890980330   119.21175268   303.88923047
 H     24  22   1     1.057226375948   106.04807030    53.68185223
 H     25  21  18     0.996616681578   124.92721559   205.79977234
 H     25  21  18     0.991622090315    98.35422631   123.10286275

---------------------------
INTERNAL COORDINATES (A.U.)
---------------------------
 Mn     0   0   0     0.000000000000     0.00000000     0.00000000
 C      1   0   0     3.988902983653     0.00000000     0.00000000
 C      2   1   0     2.839593276231   108.88153534     0.00000000
 C      3   2   1     2.619550445138   123.21618340   183.77877556
 C      4   3   2     2.590239980884   122.29844836   177.52334978
 C      5   4   3     2.600263846949   119.42690494     0.40849097
 C      6   5   4     2.592380592390   119.63159073     0.78294437
 C      3   2   1     2.631515266899   118.55109846     2.18460158
 C      8   3   2     2.838932369661   118.98512749   359.57377567
 P      1   2   3     4.213011984337    88.16950889   270.11683271
 C     10   1   2     3.420802505069   122.17553272    33.80389950
 C     10   1   2     3.432246313342   121.88496437   159.35905966
 C     10   1   2     3.489682273594   110.96757099   277.27882947
 P      1   2   3     4.341429235772    89.17091545   186.82374115
 C     14   1   2     3.419940369270   118.35884980   339.38099901
 C     14   1   2     3.439236611575   126.79661950   210.77256926
 C     13  10   1     2.572760814202   114.95843564   336.88486551
 P      1   2   3     4.340657680423   169.98632073    63.89085749
 C     18   1   9     3.488808626801   126.88047809   221.61420590
 C     18   1   9     3.428206414601   116.91312282   345.32397637
 C     18   1   9     3.482624752693   110.12441528   100.97975478
 P      1   2   3     4.214221680268    87.40238471    86.06437991
 C     22   1   2     3.442584455174   121.72661835   311.75522687
 C     22   1   2     3.417991670256   120.72868946    75.15141600
 C     21  18   1     2.848799151432   106.89751721   319.77203002
 H      2   1   3     1.866896170241   116.99646044   125.90920319
 H      2   1   3     1.864997002151   113.86967496   237.80598572
 H      4   3   2     1.594982883474   114.47420564     1.10707159
 H      5   4   3     1.669104894833   119.54626593   181.21905297
 H      6   5   4     1.795227991533   120.50757744   183.31372681
 H      7   6   5     1.718443352517   118.99176323   176.53009261
 H      9   8   3     1.817628747335   110.44110138   230.20379763
 H      9   8   3     1.733210256461   110.40127886   116.66412268
 H     11  10   1     1.910138859148   110.11015235   184.45393721
 H     11  10   1     1.592740759358   117.99861785   324.73153619
 H     11  10   1     1.835673031257   108.30690419    68.49341166
 H     12  10   1     1.881336989760    98.09694155   296.42939783
 H     12  10   1     1.821262568920   111.93734696   172.33051478
 H     12  10   1     1.819907952192   100.96407826    63.54229880
 H     13  10   1     1.864817377266   101.90546755   197.07282378
 H     13  10   1     1.709927795248   116.35247295    83.19751140
 H     15  14   1     1.752516408051   113.81298707   168.74874497
 H     15  14   1     1.997377144317    96.60801242   287.90188150
 H     15  14   1     1.562032545111   116.23212183    26.71795307
 H     16  14   1     2.004223011749   103.85499114   290.28617700
 H     16  14   1     1.826433965639   109.68585091   174.79819127
 H     16  14   1     1.727822694511   111.03965310    37.25860045
 H     17  13  10     2.034604276516   118.52178660   171.13873636
 H     17  13  10     2.234808917693    87.77405037   273.43345729
 H     19  18   1     1.536313515062   100.53026204   292.92762623
 H     19  18   1     2.131631944687   108.88836084    62.38396266
 H     19  18   1     1.559638798906   106.67304350   192.25398589
 H     20  18   1     1.892415681319   102.35095912   292.37234806
 H     20  18   1     1.698439972020   118.03563134    49.74837970
 H     20  18   1     1.687506656614   105.22569570   172.07943696
 H     21  18   1     1.912697188936   113.09690337   189.31734820
 H     21  18   1     2.199590615553   112.40774182    70.65067728
 H     23  22   1     1.586257391286   110.80124135   183.10711493
 H     23  22   1     1.690135695394   109.06865600    70.00513056
 H     23  22   1     1.597162476289   105.97229641   297.30450967
 H     24  22   1     1.444712338964   129.24935765   191.35996077
 H     24  22   1     1.819600249646   119.21175268   303.88923047
 H     24  22   1     1.997868312100   106.04807030    53.68185223
 H     25  21  18     1.883332588680   124.92721559   205.79977234
 H     25  21  18     1.873894179041    98.35422631   123.10286275

---------------------
BASIS SET INFORMATION
---------------------
There are 4 groups of distinct atoms

 Group   1 Type Mn  : 17s11p7d1f contracted to 6s4p4d1f pattern {842111/6311/4111/1}
 Group   2 Type C   : 11s6p2d1f contracted to 5s3p2d1f pattern {62111/411/11/1}
 Group   3 Type P   : 14s9p3d1f contracted to 5s5p2d1f pattern {73211/51111/21/1}
 Group   4 Type H   : 5s1p contracted to 3s1p pattern {311/1}

Atom   0Mn   basis set group =>   1
Atom   1C    basis set group =>   2
Atom   2C    basis set group =>   2
Atom   3C    basis set group =>   2
Atom   4C    basis set group =>   2
Atom   5C    basis set group =>   2
Atom   6C    basis set group =>   2
Atom   7C    basis set group =>   2
Atom   8C    basis set group =>   2
Atom   9P    basis set group =>   3
Atom  10C    basis set group =>   2
Atom  11C    basis set group =>   2
Atom  12C    basis set group =>   2
Atom  13P    basis set group =>   3
Atom  14C    basis set group =>   2
Atom  15C    basis set group =>   2
Atom  16C    basis set group =>   2
Atom  17P    basis set group =>   3
Atom  18C    basis set group =>   2
Atom  19C    basis set group =>   2
Atom  20C    basis set group =>   2
Atom  21P    basis set group =>   3
Atom  22C    basis set group =>   2
Atom  23C    basis set group =>   2
Atom  24C    basis set group =>   2
Atom  25H    basis set group =>   4
Atom  26H    basis set group =>   4
Atom  27H    basis set group =>   4
Atom  28H    basis set group =>   4
Atom  29H    basis set group =>   4
Atom  30H    basis set group =>   4
Atom  31H    basis set group =>   4
Atom  32H    basis set group =>   4
Atom  33H    basis set group =>   4
Atom  34H    basis set group =>   4
Atom  35H    basis set group =>   4
Atom  36H    basis set group =>   4
Atom  37H    basis set group =>   4
Atom  38H    basis set group =>   4
Atom  39H    basis set group =>   4
Atom  40H    basis set group =>   4
Atom  41H    basis set group =>   4
Atom  42H    basis set group =>   4
Atom  43H    basis set group =>   4
Atom  44H    basis set group =>   4
Atom  45H    basis set group =>   4
Atom  46H    basis set group =>   4
Atom  47H    basis set group =>   4
Atom  48H    basis set group =>   4
Atom  49H    basis set group =>   4
Atom  50H    basis set group =>   4
Atom  51H    basis set group =>   4
Atom  52H    basis set group =>   4
Atom  53H    basis set group =>   4
Atom  54H    basis set group =>   4
Atom  55H    basis set group =>   4
Atom  56H    basis set group =>   4
Atom  57H    basis set group =>   4
Atom  58H    basis set group =>   4
Atom  59H    basis set group =>   4
Atom  60H    basis set group =>   4
Atom  61H    basis set group =>   4
Atom  62H    basis set group =>   4
Atom  63H    basis set group =>   4
Atom  64H    basis set group =>   4
---------------------------------
AUXILIARY/J BASIS SET INFORMATION
---------------------------------
There are 4 groups of distinct atoms

 Group   1 Type Mn  : 19s5p5d3f3g contracted to 8s5p5d2f3g pattern {121111111/11111/11111/21/111}
 Group   2 Type C   : 12s5p4d2f1g contracted to 6s4p3d1f1g pattern {711111/2111/211/2/1}
 Group   3 Type P   : 14s5p5d2f1g contracted to 8s4p3d1f1g pattern {71111111/2111/311/2/1}
 Group   4 Type H   : 5s2p1d contracted to 3s1p1d pattern {311/2/1}

Atom   0Mn   basis set group =>   1
Atom   1C    basis set group =>   2
Atom   2C    basis set group =>   2
Atom   3C    basis set group =>   2
Atom   4C    basis set group =>   2
Atom   5C    basis set group =>   2
Atom   6C    basis set group =>   2
Atom   7C    basis set group =>   2
Atom   8C    basis set group =>   2
Atom   9P    basis set group =>   3
Atom  10C    basis set group =>   2
Atom  11C    basis set group =>   2
Atom  12C    basis set group =>   2
Atom  13P    basis set group =>   3
Atom  14C    basis set group =>   2
Atom  15C    basis set group =>   2
Atom  16C    basis set group =>   2
Atom  17P    basis set group =>   3
Atom  18C    basis set group =>   2
Atom  19C    basis set group =>   2
Atom  20C    basis set group =>   2
Atom  21P    basis set group =>   3
Atom  22C    basis set group =>   2
Atom  23C    basis set group =>   2
Atom  24C    basis set group =>   2
Atom  25H    basis set group =>   4
Atom  26H    basis set group =>   4
Atom  27H    basis set group =>   4
Atom  28H    basis set group =>   4
Atom  29H    basis set group =>   4
Atom  30H    basis set group =>   4
Atom  31H    basis set group =>   4
Atom  32H    basis set group =>   4
Atom  33H    basis set group =>   4
Atom  34H    basis set group =>   4
Atom  35H    basis set group =>   4
Atom  36H    basis set group =>   4
Atom  37H    basis set group =>   4
Atom  38H    basis set group =>   4
Atom  39H    basis set group =>   4
Atom  40H    basis set group =>   4
Atom  41H    basis set group =>   4
Atom  42H    basis set group =>   4
Atom  43H    basis set group =>   4
Atom  44H    basis set group =>   4
Atom  45H    basis set group =>   4
Atom  46H    basis set group =>   4
Atom  47H    basis set group =>   4
Atom  48H    basis set group =>   4
Atom  49H    basis set group =>   4
Atom  50H    basis set group =>   4
Atom  51H    basis set group =>   4
Atom  52H    basis set group =>   4
Atom  53H    basis set group =>   4
Atom  54H    basis set group =>   4
Atom  55H    basis set group =>   4
Atom  56H    basis set group =>   4
Atom  57H    basis set group =>   4
Atom  58H    basis set group =>   4
Atom  59H    basis set group =>   4
Atom  60H    basis set group =>   4
Atom  61H    basis set group =>   4
Atom  62H    basis set group =>   4
Atom  63H    basis set group =>   4
Atom  64H    basis set group =>   4


           ************************************************************
           *        Program running with 16 parallel MPI-processes    *
           *              working on a common directory               *
           ************************************************************
------------------------------------------------------------------------------
                             ORCA STARTUP CALCULATIONS
                           -- RI-GTO INTEGRALS CHOSEN --
------------------------------------------------------------------------------
------------------------------------------------------------------------------
                   ___                                                        
                  /   \      - P O W E R E D   B Y -                         
                 /     \                                                     
                 |  |  |   _    _      __       _____    __    __             
                 |  |  |  | |  | |    /  \     |  _  \  |  |  /  |          
                  \  \/   | |  | |   /    \    | | | |  |  | /  /          
                 / \  \   | |__| |  /  /\  \   | |_| |  |  |/  /          
                |  |  |   |  __  | /  /__\  \  |    /   |      \           
                |  |  |   | |  | | |   __   |  |    \   |  |\   \          
                \     /   | |  | | |  |  |  |  | |\  \  |  | \   \       
                 \___/    |_|  |_| |__|  |__|  |_| \__\ |__|  \__/        
                                                                              
                      - O R C A' S   B I G   F R I E N D -                    
                                      &                                       
                       - I N T E G R A L  F E E D E R -                       
                                                                              
 v1 FN, 2020, v2 2021, v3 2022-2024                                           
------------------------------------------------------------------------------


----------------------
SHARK INTEGRAL PACKAGE
----------------------

Number of atoms                             ...     65
Number of basis functions                   ...   1053
Number of shells                            ...    447
Maximum angular momentum                    ...      3
Integral batch strategy                     ... SHARK/LIBINT Hybrid
RI-J (if used) integral strategy            ... SPLIT-RIJ (Revised 2003 algorithm where possible)
Printlevel                                  ...      1
Contraction scheme used                     ... SEGMENTED contraction
Prescreening option                         ... SCHWARTZ
   Thresh                                   ... 2.500e-11
   Tcut                                     ... 2.500e-12
   Tpresel                                  ... 2.500e-12 
Coulomb Range Separation                    ... NOT USED
Exchange Range Separation                   ... NOT USED
Multipole approximations                    ... NOT USED
Finite Nucleus Model                        ... NOT USED
CABS basis                                  ... NOT available
Auxiliary Coulomb fitting basis             ... AVAILABLE
   # of basis functions in Aux-J            ...   1713
   # of shells in Aux-J                     ...    591
   Maximum angular momentum in Aux-J        ...      4
Auxiliary J/K fitting basis                 ... NOT available
Auxiliary Correlation fitting basis         ... NOT available
Auxiliary 'external' fitting basis          ... NOT available

Checking pre-screening integrals            ... done (  0.0 sec) Dimension = 447
Check shell pair data                       ... done (  0.0 sec)
Shell pair information
Shell pair cut-off parameter TPreSel        ...   2.5e-12
Total number of shell pairs                 ...    100128
Shell pairs after pre-screening             ...     72336
Total number of primitive shell pairs       ...    308483
Primitive shell pairs kept                  ...    143807
          la=0 lb=0:  21650 shell pairs
          la=1 lb=0:  22028 shell pairs
          la=1 lb=1:   5715 shell pairs
          la=2 lb=0:   9395 shell pairs
          la=2 lb=1:   4902 shell pairs
          la=2 lb=2:   1101 shell pairs
          la=3 lb=0:   4173 shell pairs
          la=3 lb=1:   2194 shell pairs
          la=3 lb=2:    954 shell pairs
          la=3 lb=3:    224 shell pairs

Calculating one electron integrals          ... done (  0.1 sec)
done (  0.2 sec)
Calculating Nuclear repulsion               ... done (  0.0 sec) ENN=   4178.853327520181 Eh

Diagonalization of the overlap matrix:
Smallest eigenvalue                        ... 4.425e-06
Time for diagonalization                   ...    0.113 sec
Threshold for overlap eigenvalues          ... 1.000e-07
Number of eigenvalues below threshold      ... 0
Time for construction of square roots      ...    0.134 sec
Total time needed                          ...    0.270 sec

-------------------
DFT GRID GENERATION
-------------------

General Integration Accuracy     IntAcc      ... 4.959
Radial Grid Type                 RadialGrid  ... OptM3 with GC (2021)
Angular Grid (max. ang.)         AngularGrid ... 6 (Lebedev-590)
Angular grid pruning method      GridPruning ... 4 (adaptive)
Weight generation scheme         WeightScheme... mBecke (2022)
Basis function cutoff            BFCut       ... 1.0000e-11
Integration weight cutoff        WCut        ... 1.0000e-14
Partially contracted basis set               ... off
Rotationally invariant grid construction     ... off
Angular grids for H and He will be reduced by one unit
Core-polarized basis detected: some atoms will have their core
                               angular grid increased.

Total number of grid points                  ...   697640
Total number of batches                      ...    10932
Average number of points per batch           ...       63
Average number of grid points per atom       ...    10733

--------------------
COSX GRID GENERATION
--------------------

GRIDX 1
-------
General Integration Accuracy     IntAcc      ... 4.020
Radial Grid Type                 RadialGrid  ... OptM3 with GC (2021)
Angular Grid (max. ang.)         AngularGrid ... 2 (Lebedev-110)
Angular grid pruning method      GridPruning ... 4 (adaptive)
Weight generation scheme         WeightScheme... mBecke (2022)
Basis function cutoff            BFCut       ... 1.0000e-11
Integration weight cutoff        WCut        ... 1.0000e-14
Partially contracted basis set               ... on
Rotationally invariant grid construction     ... off
Angular grids for H and He will be reduced by one unit
Core-polarized basis detected: some atoms will have their core
                               angular grid increased.

Total number of grid points                  ...    74847
Total number of batches                      ...      614
Average number of points per batch           ...      121
Average number of grid points per atom       ...     1151
UseSFitting                                  ... on

GRIDX 2
-------
General Integration Accuracy     IntAcc      ... 4.338
Radial Grid Type                 RadialGrid  ... OptM3 with GC (2021)
Angular Grid (max. ang.)         AngularGrid ... 3 (Lebedev-194)
Angular grid pruning method      GridPruning ... 4 (adaptive)
Weight generation scheme         WeightScheme... mBecke (2022)
Basis function cutoff            BFCut       ... 1.0000e-11
Integration weight cutoff        WCut        ... 1.0000e-14
Partially contracted basis set               ... on
Rotationally invariant grid construction     ... off
Angular grids for H and He will be reduced by one unit
Core-polarized basis detected: some atoms will have their core
                               angular grid increased.

Total number of grid points                  ...   157747
Total number of batches                      ...     1266
Average number of points per batch           ...      124
Average number of grid points per atom       ...     2427
UseSFitting                                  ... on

GRIDX 3
-------
General Integration Accuracy     IntAcc      ... 4.871
Radial Grid Type                 RadialGrid  ... OptM3 with GC (2021)
Angular Grid (max. ang.)         AngularGrid ... 4 (Lebedev-302)
Angular grid pruning method      GridPruning ... 4 (adaptive)
Weight generation scheme         WeightScheme... mBecke (2022)
Basis function cutoff            BFCut       ... 1.0000e-11
Integration weight cutoff        WCut        ... 1.0000e-14
Partially contracted basis set               ... on
Rotationally invariant grid construction     ... off
Angular grids for H and He will be reduced by one unit
Core-polarized basis detected: some atoms will have their core
                               angular grid increased.

Total number of grid points                  ...   305099
Total number of batches                      ...     2418
Average number of points per batch           ...      126
Average number of grid points per atom       ...     4694
UseSFitting                                  ... on
Initializing property integral containers    ... done (  0.0 sec)

SHARK setup successfully completed in  10.5 seconds

Maximum memory used throughout the entire STARTUP-calculation: 242.9 MB


           ************************************************************
           *        Program running with 16 parallel MPI-processes    *
           *              working on a common directory               *
           ************************************************************
-------------------------------------------------------------------------------
                                 ORCA GUESS
                   Start orbitals & Density for SCF / CASSCF
-------------------------------------------------------------------------------

------------
SCF SETTINGS
------------
Hamiltonian:
 Density Functional     Method          .... DFT(GTOs)
 Exchange Functional    Exchange        .... PBE
   PBE kappa parameter   XKappa         ....  0.804000
   PBE mue parameter    XMuePBE         ....  0.219520
 Correlation Functional Correlation     .... PBE
   PBE beta parameter  CBetaPBE         ....  0.066725
 LDA part of GGA corr.  LDAOpt          .... PW91-LDA
 Gradients option       PostSCFGGA      .... off
 Hybrid DFT is turned on
   Fraction HF Exchange ScalHFX         ....  0.250000
   Scaling of DF-GGA-X  ScalDFX         ....  0.750000
   Scaling of DF-GGA-C  ScalDFC         ....  1.000000
   Scaling of DF-LDA-C  ScalLDAC        ....  1.000000
   Perturbative correction              ....  0.000000
   NL short-range parameter             ....  6.900000
 RI-approximation to the Coulomb term is turned on
   Number of AuxJ basis functions       .... 1713
   RIJ-COSX (HFX calculated with COS-X)).... on


General Settings:
 Integral files         IntName         .... CEBBAM-S2
 Hartree-Fock type      HFTyp           .... UHF
 Total Charge           Charge          ....    0
 Multiplicity           Mult            ....    2
 Number of Electrons    NEL             ....  245
 Basis Dimension        Dim             .... 1053
 Nuclear Repulsion      ENuc            ....   4178.8533275202 Eh

Convergence Acceleration:
 AO-DIIS                CNVDIIS         .... on
   Start iteration      DIISMaxIt       ....    12
   Startup error        DIISStart       ....  0.200000
   # of expansion vecs  DIISMaxEq       ....     5
   Bias factor          DIISBfac        ....   1.050
   Max. coefficient     DIISMaxC        ....  10.000
 MO-DIIS                CNVKDIIS        .... off
 Trust-Rad. Augm. Hess. CNVTRAH         .... auto
   Auto Start mean grad. ratio tolernc. ....  1.125000
   Auto Start start iteration           ....    50
   Auto Start num. interpolation iter.  ....    10
   Max. Number of Micro iterations      ....    24
   Max. Number of Macro iterations      .... Maxiter - #DIIS iter
   Number of Davidson start vectors     ....     2
   Converg. threshold    (grad. norm)   ....   1.000e-05
   Grad. Scal. Fac. for Micro threshold ....   0.100
   Minimum threshold for Micro iter.    ....   1.000e-02
   NR start threshold (gradient norm)   ....   1.000e-04
   Initial trust radius                 ....   0.400
   Minimum AH scaling param. (alpha)    ....   1.000
   Maximum AH scaling param. (alpha)    .... 1000.000
   Quad. conv. algorithm                .... NR
   White noise on init. David. guess    .... on
   Maximum white noise                  ....   0.010
   Pseudo random numbers                .... off
   Inactive MOs                         .... canonical
   Orbital update algorithm             .... Taylor
   Preconditioner                       .... Diag
   Full preconditioner red. dimension   ....   250
 SOSCF                  CNVSOSCF        .... on
   Start iteration      SOSCFMaxIt      ....   150
   Startup grad/error   SOSCFStart      ....  0.003300
   Hessian update       SOSCFHessUp     .... L-BFGS
 Level Shifting         CNVShift        .... on
   Level shift para.    LevelShift      ....    0.2500
   Turn off err/grad.   ShiftErr        ....    0.0010
 Zerner damping         CNVZerner       .... off
 Static damping         CNVDamp         .... on
   Fraction old density DampFac         ....    0.7000
   Max. Damping (<1)    DampMax         ....    0.9800
   Min. Damping (>=0)   DampMin         ....    0.0000
   Turn off err/grad.   DampErr         ....    0.1000

SCF Procedure:
 Maximum # iterations   MaxIter         ....   125
 SCF integral mode      SCFMode         .... Direct
   Integral package                     .... SHARK and LIBINT hybrid scheme
 Reset frequency        DirectResetFreq ....    20
 Integral Threshold     Thresh          ....  2.500e-11 Eh
 Primitive CutOff       TCut            ....  2.500e-12 Eh

Convergence Tolerance:
 Convergence Check Mode ConvCheckMode   .... Total+1el-Energy
 Convergence forced     ConvForced      .... 0
[...]
188:   3161.77   0.000326    1.65  0.000032  ( 0.004381  0.002800 -0.002268)
189:   3162.29   0.000719    3.63  0.000071  ( 0.005101  0.006562 -0.001358)
190:   3165.54   0.000462    2.34  0.000046  (-0.000852  0.000173 -0.006695)
191:   3166.14   0.000506    2.56  0.000050  ( 0.004245 -0.004621  0.003237)
192:   3168.46   0.000493    2.49  0.000049  ( 0.003185 -0.004760 -0.003966)
193:   3179.60   0.005275   26.66  0.000518  ( 0.018184  0.013674  0.000181)
194:   3196.36   0.009062   45.80  0.000885  (-0.014274  0.018983  0.017906)

* The epsilon (eps) is given for a Dirac delta lineshape.
** The dipole moment derivative (T) already includes vibrational overlap.

The first frequency considered to be a vibration is 6
The total number of vibrations considered is 189


--------------------------
THERMOCHEMISTRY AT 298.15K
--------------------------

Temperature         ...   298.15 K
Pressure            ...     1.00 atm
Total Mass          ...   459.38 AMU
Quasi RRHO          ...     True
Cut-Off Frequency   ...     1.00 cm^-1

Throughout the following assumptions are being made:
  (1) The electronic state is orbitally nondegenerate
      but the spin degeneracy is treated
  (2) There are no thermally accessible electronically excited states
  (3) Hindered rotations indicated by low frequency modes are not
      treated as such but are treated as vibrations and this may
      cause some error
  (4) All equations used are the standard statistical mechanics
      equations for an ideal gas
  (5) All vibrations are strictly harmonic

freq.      30.38  E(vib)   ...       0.55 
freq.      36.15  E(vib)   ...       0.54 
freq.      42.84  E(vib)   ...       0.53 
freq.      71.29  E(vib)   ...       0.50 
freq.      79.32  E(vib)   ...       0.49 
freq.      91.31  E(vib)   ...       0.47 
freq.     109.54  E(vib)   ...       0.45 
freq.     114.39  E(vib)   ...       0.44 
freq.     119.00  E(vib)   ...       0.44 
freq.     124.61  E(vib)   ...       0.43 
freq.     133.61  E(vib)   ...       0.42 
freq.     143.85  E(vib)   ...       0.41 
freq.     157.66  E(vib)   ...       0.40 
freq.     162.23  E(vib)   ...       0.39 
freq.     168.47  E(vib)   ...       0.38 
freq.     169.01  E(vib)   ...       0.38 
freq.     172.32  E(vib)   ...       0.38 
freq.     179.78  E(vib)   ...       0.37 
freq.     190.16  E(vib)   ...       0.36 
freq.     197.29  E(vib)   ...       0.35 
freq.     202.38  E(vib)   ...       0.35 
freq.     203.08  E(vib)   ...       0.35 
freq.     205.57  E(vib)   ...       0.35 
freq.     205.90  E(vib)   ...       0.35 
freq.     206.60  E(vib)   ...       0.35 
freq.     219.06  E(vib)   ...       0.33 
freq.     229.14  E(vib)   ...       0.32 
freq.     230.14  E(vib)   ...       0.32 
freq.     239.78  E(vib)   ...       0.31 
freq.     242.72  E(vib)   ...       0.31 
freq.     256.93  E(vib)   ...       0.30 
freq.     262.04  E(vib)   ...       0.29 
freq.     263.57  E(vib)   ...       0.29 
freq.     271.80  E(vib)   ...       0.29 
freq.     285.96  E(vib)   ...       0.27 
freq.     290.04  E(vib)   ...       0.27 
freq.     304.25  E(vib)   ...       0.26 
freq.     310.70  E(vib)   ...       0.26 
freq.     311.36  E(vib)   ...       0.25 
freq.     323.42  E(vib)   ...       0.25 
freq.     324.14  E(vib)   ...       0.25 
freq.     339.21  E(vib)   ...       0.23 
freq.     353.88  E(vib)   ...       0.22 
freq.     356.53  E(vib)   ...       0.22 
freq.     383.50  E(vib)   ...       0.20 
freq.     449.20  E(vib)   ...       0.17 
freq.     451.77  E(vib)   ...       0.16 
freq.     453.47  E(vib)   ...       0.16 
freq.     514.57  E(vib)   ...       0.13 
freq.     521.66  E(vib)   ...       0.13 
freq.     532.11  E(vib)   ...       0.13 
freq.     605.55  E(vib)   ...       0.10 
freq.     611.99  E(vib)   ...       0.10 
freq.     630.48  E(vib)   ...       0.09 
freq.     631.48  E(vib)   ...       0.09 
freq.     646.75  E(vib)   ...       0.09 
freq.     652.89  E(vib)   ...       0.08 
freq.     665.22  E(vib)   ...       0.08 
freq.     673.69  E(vib)   ...       0.08 
freq.     698.14  E(vib)   ...       0.07 
freq.     700.33  E(vib)   ...       0.07 
freq.     704.03  E(vib)   ...       0.07 
freq.     706.55  E(vib)   ...       0.07 
freq.     717.15  E(vib)   ...       0.07 
freq.     718.43  E(vib)   ...       0.07 
freq.     721.59  E(vib)   ...       0.07 
freq.     723.91  E(vib)   ...       0.06 
freq.     752.80  E(vib)   ...       0.06 
freq.     761.05  E(vib)   ...       0.06 
freq.     769.25  E(vib)   ...       0.06 
freq.     784.67  E(vib)   ...       0.05 
freq.     786.14  E(vib)   ...       0.05 
freq.     795.17  E(vib)   ...       0.05 
freq.     797.61  E(vib)   ...       0.05 
freq.     823.91  E(vib)   ...       0.05 
freq.     831.06  E(vib)   ...       0.04 
freq.     839.53  E(vib)   ...       0.04 
freq.     843.23  E(vib)   ...       0.04 
freq.     854.48  E(vib)   ...       0.04 
freq.     857.22  E(vib)   ...       0.04 
freq.     862.58  E(vib)   ...       0.04 
freq.     872.67  E(vib)   ...       0.04 
freq.     893.13  E(vib)   ...       0.03 
freq.     896.26  E(vib)   ...       0.03 
freq.     912.81  E(vib)   ...       0.03 
freq.     913.09  E(vib)   ...       0.03 
freq.     937.09  E(vib)   ...       0.03 
freq.     938.27  E(vib)   ...       0.03 
freq.     938.56  E(vib)   ...       0.03 
freq.     944.33  E(vib)   ...       0.03 
freq.     944.38  E(vib)   ...       0.03 
freq.     946.42  E(vib)   ...       0.03 
freq.     951.11  E(vib)   ...       0.03 
freq.     959.41  E(vib)   ...       0.03 
freq.    1013.95  E(vib)   ...       0.02 
freq.    1015.10  E(vib)   ...       0.02 
freq.    1063.08  E(vib)   ...       0.02 
freq.    1075.52  E(vib)   ...       0.02 
freq.    1080.71  E(vib)   ...       0.02 
freq.    1081.00  E(vib)   ...       0.02 
freq.    1095.86  E(vib)   ...       0.02 
freq.    1121.59  E(vib)   ...       0.01 
freq.    1132.21  E(vib)   ...       0.01 
freq.    1145.64  E(vib)   ...       0.01 
freq.    1149.33  E(vib)   ...       0.01 
freq.    1152.14  E(vib)   ...       0.01 
freq.    1170.82  E(vib)   ...       0.01 
freq.    1205.58  E(vib)   ...       0.01 
freq.    1242.45  E(vib)   ...       0.01 
freq.    1257.68  E(vib)   ...       0.01 
freq.    1258.21  E(vib)   ...       0.01 
freq.    1286.12  E(vib)   ...       0.01 
freq.    1286.92  E(vib)   ...       0.01 
freq.    1288.16  E(vib)   ...       0.01 
freq.    1293.31  E(vib)   ...       0.01 
freq.    1294.35  E(vib)   ...       0.01 
freq.    1294.60  E(vib)   ...       0.01 
freq.    1302.11  E(vib)   ...       0.01 
freq.    1312.28  E(vib)   ...       0.01 
freq.    1314.54  E(vib)   ...       0.01 
freq.    1315.10  E(vib)   ...       0.01 
freq.    1318.37  E(vib)   ...       0.01 
freq.    1348.58  E(vib)   ...       0.01 
freq.    1433.60  E(vib)   ...       0.00 
freq.    1437.43  E(vib)   ...       0.00 
freq.    1438.27  E(vib)   ...       0.00 
freq.    1438.45  E(vib)   ...       0.00 
freq.    1443.05  E(vib)   ...       0.00 
freq.    1443.48  E(vib)   ...       0.00 
freq.    1446.20  E(vib)   ...       0.00 
freq.    1447.17  E(vib)   ...       0.00 
freq.    1448.36  E(vib)   ...       0.00 
freq.    1449.99  E(vib)   ...       0.00 
freq.    1453.30  E(vib)   ...       0.00 
freq.    1453.98  E(vib)   ...       0.00 
freq.    1456.60  E(vib)   ...       0.00 
freq.    1456.82  E(vib)   ...       0.00 
freq.    1457.43  E(vib)   ...       0.00 
freq.    1459.94  E(vib)   ...       0.00 
freq.    1462.79  E(vib)   ...       0.00 
freq.    1463.30  E(vib)   ...       0.00 
freq.    1464.53  E(vib)   ...       0.00 
freq.    1465.57  E(vib)   ...       0.00 
freq.    1470.12  E(vib)   ...       0.00 
freq.    1470.25  E(vib)   ...       0.00 
freq.    1484.68  E(vib)   ...       0.00 
freq.    1523.57  E(vib)   ...       0.00 
freq.    1634.73  E(vib)   ...       0.00 
freq.    1648.47  E(vib)   ...       0.00 
freq.    2959.68  E(vib)   ...       0.00 
freq.    2960.91  E(vib)   ...       0.00 
freq.    2976.86  E(vib)   ...       0.00 
freq.    2977.65  E(vib)   ...       0.00 
freq.    3039.28  E(vib)   ...       0.00 
freq.    3039.47  E(vib)   ...       0.00 
freq.    3044.58  E(vib)   ...       0.00 
freq.    3044.70  E(vib)   ...       0.00 
freq.    3048.16  E(vib)   ...       0.00 
freq.    3048.37  E(vib)   ...       0.00 
freq.    3050.27  E(vib)   ...       0.00 
freq.    3052.76  E(vib)   ...       0.00 
freq.    3053.00  E(vib)   ...       0.00 
freq.    3053.40  E(vib)   ...       0.00 
freq.    3054.91  E(vib)   ...       0.00 
freq.    3055.22  E(vib)   ...       0.00 
freq.    3086.70  E(vib)   ...       0.00 
freq.    3086.85  E(vib)   ...       0.00 
freq.    3100.97  E(vib)   ...       0.00 
freq.    3101.21  E(vib)   ...       0.00 
freq.    3128.96  E(vib)   ...       0.00 
freq.    3129.18  E(vib)   ...       0.00 
freq.    3132.96  E(vib)   ...       0.00 
freq.    3133.72  E(vib)   ...       0.00 
freq.    3140.07  E(vib)   ...       0.00 
freq.    3140.69  E(vib)   ...       0.00 
freq.    3142.03  E(vib)   ...       0.00 
freq.    3142.12  E(vib)   ...       0.00 
freq.    3144.11  E(vib)   ...       0.00 
freq.    3144.29  E(vib)   ...       0.00 
freq.    3156.30  E(vib)   ...       0.00 
freq.    3157.87  E(vib)   ...       0.00 
freq.    3160.38  E(vib)   ...       0.00 
freq.    3161.77  E(vib)   ...       0.00 
freq.    3162.29  E(vib)   ...       0.00 
freq.    3165.54  E(vib)   ...       0.00 
freq.    3166.14  E(vib)   ...       0.00 
freq.    3168.46  E(vib)   ...       0.00 
freq.    3179.60  E(vib)   ...       0.00 
freq.    3196.36  E(vib)   ...       0.00 

------------
INNER ENERGY
------------

The inner energy is: U= E(el) + E(ZPE) + E(vib) + E(rot) + E(trans)
    E(el)   - is the total energy from the electronic structure calculation
              = E(kin-el) + E(nuc-el) + E(el-el) + E(nuc-nuc)
    E(ZPE)  - the the zero temperature vibrational energy from the frequency calculation
    E(vib)  - the the finite temperature correction to E(ZPE) due to population
              of excited vibrational states
    E(rot)  - is the rotational thermal energy
    E(trans)- is the translational thermal energy

Summary of contributions to the inner energy U:
Electronic energy                ...  -3301.31658940 Eh
Zero point energy                ...      0.55475035 Eh     348.11 kcal/mol
Thermal vibrational correction   ...      0.03111332 Eh      19.52 kcal/mol
Thermal rotational correction    ...      0.00141627 Eh       0.89 kcal/mol
Thermal translational correction ...      0.00141627 Eh       0.89 kcal/mol
-----------------------------------------------------------------------
Total thermal energy                  -3300.72789320 Eh


Summary of corrections to the electronic energy:
(perhaps to be used in another calculation)
Total thermal correction                  0.03394586 Eh      21.30 kcal/mol
Non-thermal (ZPE) correction              0.55475035 Eh     348.11 kcal/mol
-----------------------------------------------------------------------
Total correction                          0.58869621 Eh     369.41 kcal/mol


--------
ENTHALPY
--------

The enthalpy is H = U + kB*T
                kB is Boltzmann's constant
Total thermal energy              ...  -3300.72789320 Eh 
Thermal Enthalpy correction       ...      0.00094421 Eh       0.59 kcal/mol
-----------------------------------------------------------------------
Total Enthalpy                    ...  -3300.72694899 Eh


Note: Only C1 symmetry has been detected, increase convergence thresholds 
      if your molecule has a higher symmetry. Symmetry factor of 1.0 is   
      used for the rotational entropy correction. 
 

Note: Rotational entropy computed according to Herzberg 
Infrared and Raman Spectra, Chapter V,1, Van Nostrand Reinhold, 1945 
Point Group:  C1, Symmetry Number:   1  
Rotational constants in cm-1:     0.007130     0.005342     0.004697 

Vibrational entropy computed according to the QRRHO of S. Grimme
Chem.Eur.J. 2012 18 9955 using a reference frequency of 100.0 cm-1


-------
ENTROPY
-------

The entropy contributions are T*S = T*(S(el)+S(vib)+S(rot)+S(trans))
     S(el)   - electronic entropy
     S(vib)  - vibrational entropy
     S(rot)  - rotational entropy
     S(trans)- translational entropy
The entropies will be listed as multiplied by the temperature to get
units of energy

Electronic entropy                ...      0.00065446 Eh      0.41 kcal/mol
Vibrational entropy               ...      0.05440085 Eh     34.14 kcal/mol
Rotational entropy                ...      0.01684542 Eh     10.57 kcal/mol
Translational entropy             ...      0.02103063 Eh     13.20 kcal/mol
-----------------------------------------------------------------------
Final entropy term                ...      0.09293135 Eh     58.32 kcal/mol

In case the symmetry of your molecule has not been determined correctly
or in case you have a reason to use a different symmetry number we print 
out the resulting rotational entropy values for sn=1,12:

 non-linear molecules -----------------------------------
|  sn= 1 | S(rot)=       0.01684542 Eh     10.57 kcal/mol|
|  sn= 2 | S(rot)=       0.01619096 Eh     10.16 kcal/mol|
|  sn= 3 | S(rot)=       0.01580813 Eh      9.92 kcal/mol|
|  sn= 4 | S(rot)=       0.01553651 Eh      9.75 kcal/mol|
|  sn= 5 | S(rot)=       0.01532582 Eh      9.62 kcal/mol|
|  sn= 6 | S(rot)=       0.01515367 Eh      9.51 kcal/mol|
|  sn= 7 | S(rot)=       0.01500813 Eh      9.42 kcal/mol|
|  sn= 8 | S(rot)=       0.01488205 Eh      9.34 kcal/mol|
|  sn= 9 | S(rot)=       0.01477084 Eh      9.27 kcal/mol|
|  sn=10 | S(rot)=       0.01467136 Eh      9.21 kcal/mol|
|  sn=11 | S(rot)=       0.01458137 Eh      9.15 kcal/mol|
|  sn=12 | S(rot)=       0.01449922 Eh      9.10 kcal/mol|
 linear molecules ---------------------------------------
|  Dinfh | S(rot)=       0.01038747 Eh      6.52 kcal/mol|
|  Cinfv | S(rot)=       0.01104193 Eh      6.93 kcal/mol|
 --------------------------------------------------------


-------------------
GIBBS FREE ENERGY
-------------------

The Gibbs free energy is G = H - T*S

Total enthalpy                    ...  -3300.72694899 Eh 
Total entropy correction          ...     -0.09293135 Eh    -58.32 kcal/mol
-----------------------------------------------------------------------
Final Gibbs free energy         ...  -3300.81988034 Eh

For completeness - the Gibbs free energy minus the electronic energy
G-E(el)                           ...      0.49670906 Eh    311.69 kcal/mol


Maximum memory used throughout the entire PROP-calculation: 1876.0 MB

--------------------------------
SUGGESTED CITATIONS FOR THIS RUN
--------------------------------

Below you find a list of papers that are relevant to this ORCA run
We neither can nor want to force you to cite these papers, but we appreciate if you do
You receive ORCA, which is the product of decades of hard work by many enthusiastic individuals, for free
The only thing we kindly ask in return is that you cite our papers,
We deeply appreciate it, if you show your appreciation for ORCA by not just citing the generic ORCA reference.

Please note that relegating all ORCA citations to the supporting information does *not* help us.
SI sections are not indexed - citations you put there will not count into any citation statistics
But we need these citations in order to attract the funding resources that allow us to do what we are doing

Therefore, if you are a happy ORCA user, please consider citing a few of the papers listed below in the main body of your paper

In addition to the list printed below, the program has created the file CEBBAM-S2.bibtex that contains the list in bibtex format
You can import this file easily into all common literature databanks and citation aid programs


List of essential papers. We consider these as the minimum necessary citations

  1. Neese,F.
     Software update: the ORCA program system, version 5.0
     WIRES Comput. Molec. Sci., 2022 12(1)e1606
     doi.org/10.1002/wcms.1606

List of papers to cite with high priority. The work reported in these papers was absolutely
necessary for this run to complete.
Our perspective: the developers of density functionals and basis sets usually get cited in chemistry papers
Good! But without the algorithms to do something with them, the functionals or basis sets would not do anything.
Hence, in our opinion, the algorithm design and method developments papers are equally worthy of getting cited

  1. Neese,F.
     An improvement of the resolution of the identity approximation for the formation of the Coulomb matrix
     J. Comp. Chem., 2003 24(14)1740-1747
     doi.org/10.1002/jcc.10318
  2. Neese,F.; Wennmohs,F.; Hansen,A.; Becker,U.
     Efficient, approximate and parallel Hartree-Fock and hybrid DFT calculations. A 'chain-of-spheres' algorithm for the Hartree-Fock exchange
     Chem. Phys., 2009 356(1-3)98-109
     doi.org/10.1016/j.chemphys.2008.10.036
  3. Bykov,D.; Petrenko,T.; Izsak,R.; Kossmann,S.; Becker,U.; Valeev,E.; Neese,F.
     Efficient implementation of the analytic second derivatives of Hartree-Fock and hybrid DFT energies: a detailed analysis of different approximations
     Molec. Phys., 2015 113 1961-1977
     doi.org/10.1080/00268976.2015.1025114
  4. Helmich-Paris,B.; de Souza,B.; Neese,F.; Izsák,R.
     An improved chain of spheres for exchange algorithm
     J. Chem. Phys., 2021 155 104109
     doi.org/doi: 10.1063/5.0058766.
  5. Neese,F.
     The SHARK Integral Generation and Digestion System
     J. Comp. Chem., 2022  1-16
     doi.org/10.1002/jcc.26942

List of suggested additional citations. These are papers that are important in the 'surrounding' of 
of this run, or papers that preceded the highly important papers. If you like your results we are grateful for a citation.

  1. Izsak,R.; Neese,F.
     An overlap fitted chain of spheres exchange method
     J. Chem. Phys., 2011 135 144105
     doi.org/10.1063/1.3646921
  2. Izsak,R.; Hansen,A.; Neese,F.
     The resolution of identity and chain of spheres approximations for the LPNO-CCSD singles Fock term
     Molec. Phys., 2012 110 2413-2417
     doi.org/10.1080/00268976.2012.687466
  3. Neese,F.
     The ORCA program system
     WIRES Comput. Molec. Sci., 2012 2(1)73-78
     doi.org/10.1002/wcms.81
  4. Izsak,R.; Neese,F.; Klopper,W.
     Robust fitting techniques in the chain of spheres approximation to the Fock exchange: The role of the complementary space
     J. Chem. Phys., 2013 139 
     doi.org/10.1063/1.4819264
  5. Neese,F.
     Software update: the ORCA program system, version 4.0
     WIRES Comput. Molec. Sci., 2018 8(1)1-6
     doi.org/10.1002/wcms.1327
  6. Neese,F.; Wennmohs,F.; Becker,U.; Riplinger,C.
     The ORCA quantum chemistry program package
     J. Chem. Phys., 2020 152 Art. No. L224108
     doi.org/10.1063/5.0004608

List of optional additional citations

  1. Neese,F.
     Approximate second-order SCF convergence for spin unrestricted wavefunctions
     Chem. Phys. Lett., 2000 325(1-3)93-98
     doi.org/10.1016/s0009-2614(00)00662-x

Timings for individual modules:

Sum of individual times          ...    34320.483 sec (= 572.008 min)
Startup calculation              ...      334.811 sec (=   5.580 min)   1.0 %
SCF iterations                   ...     8299.539 sec (= 138.326 min)  24.2 %
Property integrals               ...     5961.126 sec (=  99.352 min)  17.4 %
SCF Response                     ...    16006.378 sec (= 266.773 min)  46.6 %
Property calculations            ...     1733.217 sec (=  28.887 min)   5.1 %
SCF Gradient evaluation          ...     1983.909 sec (=  33.065 min)   5.8 %
Geometry relaxation              ...        1.502 sec (=   0.025 min)   0.0 %
                             ****ORCA TERMINATED NORMALLY****
TOTAL RUN TIME: 0 days 9 hours 32 minutes 41 seconds 656 msec
