
                                 *****************
                                 * O   R   C   A *
                                 *****************

                                            #,                                       
                                            ###                                      
                                            ####                                     
                                            #####                                    
                                            ######                                   
                                           ########,                                 
                                     ,,################,,,,,                         
                               ,,#################################,,                 
                          ,,##########################################,,             
                       ,#########################################, ''#####,          
                    ,#############################################,,   '####,        
                  ,##################################################,,,,####,       
                ,###########''''           ''''###############################       
              ,#####''   ,,,,##########,,,,          '''####'''          '####       
            ,##' ,,,,###########################,,,                        '##       
           ' ,,###''''                  '''############,,,                           
         ,,##''                                '''############,,,,        ,,,,,,###''
      ,#''                                            '''#######################'''  
     '                                                          ''''####''''         
             ,#######,   #######,   ,#######,      ##                                
            ,#'     '#,  ##    ##  ,#'     '#,    #''#        ,####,   ,####,        
            ##       ##  ##   ,#'  ##            #'  '#       #'       #'  '#        
            ##       ##  #######   ##           ,######,      #####,   #    #        
            '#,     ,#'  ##    ##  '#,     ,#' ,#      #,     #,   #   #,  ,#        
             '#######'   ##     ##  '#######'  #'      '#     '####' # '####'        



                #########################################################
                #                        -***-                          #
                #          Department of theory and spectroscopy        #
                #                                                       #
                #                      Frank Neese                      #
                #                                                       #
                #     Directorship, Architecture, Infrastructure        #
                #                    SHARK, DRIVERS                     #
                #        Core code/Algorithms in most modules           #
                #                                                       #
                #        Max Planck Institute fuer Kohlenforschung      #
                #                Kaiser Wilhelm Platz 1                 #
                #                 D-45470 Muelheim/Ruhr                 #
                #                      Germany                          #
                #                                                       #
                #                  All rights reserved                  #
                #                        -***-                          #
                #########################################################


                         Program Version 6.0.1  -  RELEASE   -


 With contributions from (in alphabetic order):
[Max-Planck-Institut fuer Kohlenforschung]                               
  Daniel Aravena         : Magnetic Suceptibility                        
  Michael Atanasov       : Ab Initio Ligand Field Theory (pilot matlab implementation)
  Alexander A. Auer      : GIAO ZORA, VPT2 properties, NMR spectrum      
  Ute Becker             : All parallelization in ORCA, NUMFREQ, NUMCALC 
  Giovanni Bistoni       : ED, misc. LED, open-shell LED, HFLD           
  Martin Brehm           : Molecular dynamics                            
  Dmytro Bykov           : pre 5.0 version of the SCF Hessian            
  Marcos Casanova-Páez   : Triplet and SCS-CIS(D). UHF-(DLPNO)-IP/EA/STEOM-CCSD. UHF-CVS-IP/STEOM-CCSD   
  Vijay G. Chilkuri      : MRCI spin determinant printing, contributions to CSF-ICE 
  Pauline Colinet        : FMM embedding                                 
  Dipayan Datta          : RHF DLPNO-CCSD density                        
  Achintya Kumar Dutta   : EOM-CC, STEOM-CC                              
  Nicolas Foglia         : Exact transition moments, OPA infrastructure, MCD improvements    
  Dmitry Ganyushin       : Spin-Orbit,Spin-Spin,Magnetic field MRCI      
  Miquel Garcia-Rates    : C-PCM and meta-GGA Hessian, CCSD/C-PCM, Gaussian charge scheme 
  Tiago L. C. Gouveia    : GS-ROHF, GS-ROCIS                             
  Yang Guo               : DLPNO-NEVPT2, F12-NEVPT2, CIM, IAO-localization        
  Andreas Hansen         : Spin unrestricted coupled pair/coupled cluster methods 
  Ingolf Harden          : AUTO-CI MPn and infrastructure                
  Benjamin Helmich-Paris : MC-RPA, TRAH-(SCF,CASSCF), AVAS, COSX integrals, SCF dyn. polar. 
  Lee Huntington         : MR-EOM, pCC                                   
  Robert Izsak           : Overlap fitted RIJCOSX, COSX-SCS-MP3, EOM     
  Riya Kayal             : Wick's Theorem for AUTO-CI, AUTO-CI UHF-CCSDT 
  Emily Kempfer          : AUTO-CI, RHF CISDT and CCSDT                  
  Christian Kollmar      : KDIIS, OOCD, Brueckner-CCSD(T), CCSD density, CASPT2, CASPT2-K, improved NEVPT2 
  Axel Koslowski         : Symmetry handling                             
  Simone Kossmann        : meta-GGA functionals, TD-DFT gradient, OOMP2, (MP2 Hessian; deprecated post 5.0) 
  Lucas Lang             : DCDCAS                                        
  Marvin Lechner         : AUTO-CI (C++ implementation), FIC-MRCC        
  Spencer Leger          : CASSCF response                               
  Dagmar Lenk            : GEPOL surface, SMD, ORCA-2-JSON               
  Dimitrios Liakos       : Extrapolation schemes; Compound Job, initial MDCI parallelization 
  Dimitrios Manganas     : Further ROCIS development; embedding schemes. LFT, Crystal Embedding 
  Dimitrios Pantazis     : SARC Basis sets                               
  Anastasios Papadopoulos: AUTO-CI, single reference methods and gradients 
  Taras Petrenko         : pre 6.0 DFT Hessian and TD-DFT gradient, (ASA, deprecated), ECA, 1-Electron XAS/XES, NRVS 
  Peter Pinski           : DLPNO-MP2, DLPNO-MP2 Gradient                 
  Christoph Reimann      : Effective Core Potentials                     
  Marius Retegan         : Local ZFS, SOC                                
  Christoph Riplinger    : Optimizer, TS searches, QM/MM, DLPNO-CCSD(T), (RO)-DLPNO pert. Triples 
  Michael Roemelt        : Original ROCIS implementation                 
  Masaaki Saitow         : Open-shell DLPNO-CCSD energy and density      
  Barbara Sandhoefer     : DKH picture change effects                    
  Kantharuban Sivalingam : CASSCF convergence/infrastructure, NEVPT2 and variants, FIC-MRCI 
  Bernardo de Souza      : ESD, SOC TD-DFT                               
  Georgi L. Stoychev     : AutoAux, RI-MP2 NMR, DLPNO-MP2 response, X2C  
  Van Anh Tran           : RI-MP2 g-tensors                              
  Willem Van den Heuvel  : Paramagnetic NMR                              
  Zikuan Wang            : NOTCH, Electric field optimization            
  Frank Wennmohs         : Technical directorship and infrastructure     
  Hang Xu                : AUTO-CI-Response properties                   
                                                                         
[FACCTs GmbH]                                                            
  Markus Bursch, Miquel Garcia-Rates, Christoph Riplinger, Bernardo de Souza, Georgi L. Stoychev 
                                                                 
  APM, Basis sets (HGBS, AHGBS, def-TZVP (Ac-Lr), def2-XVPD (La-Lu)), CI-OPT, improved COSX, DLPNO-Multilevel,           
  DOCKER, DRACO, updates on ESD, GOAT, IRC, LR-CPCM, MBIS, meta-GGA TD-DFT gradient, ML-optimized integration grids, 
  MM, NACMEs, nearIR, NEB, NEB-TS, NL-DFT gradient (VV10), 2- and 3-layer-ONIOM, interface openCOSMO-RS, QMMM,   
  Crystal-QMMM, SF, symmetry and pop. for TD-DFT, r2SCAN hybrids, SOLVATOR                                   
                                                                         
[Other institutions]                                                     
  V. Asgeirsson          : NEB                                           
  Christoph Bannwarth    : sTDA-DFT, sTD-DFT, PBEh-3c, B97-3c, D3        
  Sebastian Ehlert       : rSCAN, r2SCAN, r2SCAN-3c, D4, dhf basis sets  
  Marvin Friede          : D4 for Fr, Ra, Ac-Lr                          
  Lars Goerigk           : TD-DFT with DH, B97 family of functionals     
  Stefan Grimme          : VdW corrections, initial TS optimization, DFT functionals, gCP, sTDA/sTD-DF 
  Waldemar Hujo          : DFT-NL                                        
  H. Jonsson             : NEB                                           
  Holger Kruse           : gCP                                           
  Marcel Mueller         : wB97X-3c, vDZP basis set                      
  Hagen Neugebauer       : wr2SCAN                                       
  Tobias Risthaus        : range-separated hybrid DFT                    
  Lukas Wittmann         : regularized MP2, r2SCAN double-hybrids, wr2SCAN        
                                                                         
We gratefully acknowledge several colleagues who have allowed us to      
interface, adapt or use parts of their codes:                            
  Ed Valeev, F. Pavosevic, A. Kumar             : LibInt (2-el integral package), F12 methods 
  Garnet Chan, S. Sharma, J. Yang, R. Olivares  : DMRG                   
  Ulf Ekstrom                                   : XCFun DFT Library      
  Mihaly Kallay                                 : mrcc  (arbitrary order and MRCC methods)
  Frank Weinhold                                : gennbo (NPA and NBO analysis)           
  Simon Mueller                                 : openCOSMO-RS                            
  Christopher J. Cramer and Donald G. Truhlar   : smd solvation model                     
  S Lehtola, MJT Oliveira, MAL Marques          : LibXC Library                           
  Liviu Ungur et al                             : ANISO software                          


 Your calculation uses the libint2 library for the computation of 2-el integrals
 For citations please refer to: http://libint.valeyev.net

 Your ORCA version has been built with support for libXC version: 6.2.2
 For citations please refer to: https://libxc.gitlab.io

 This ORCA versions uses:
   CBLAS   interface :  Fast vector & matrix operations
   LAPACKE interface :  Fast linear algebra routines
   SCALAPACK package :  Parallel linear algebra routines
   Shared memory     :  Shared parallel matrices
   BLAS/LAPACK       :  OpenBLAS 0.3.27  USE64BITINT DYNAMIC_ARCH NO_AFFINITY Cooperlake SINGLE_THREADED
        Core in use  :  Cooperlake
   Copyright (c) 2011-2014, The OpenBLAS Project


NOTE: MaxCore=3600 MB was set to SCF,MP2,MDCI,CIPSI,MRCI and CIS
      => If you want to overwrite this, your respective input block should be placed after the MaxCore statement
Warning: RI is on but no J-basis has been assigned. Assigning Def2/J (nothing to worry about!)
================================================================================

----- Orbital basis set information -----
Your calculation utilizes the basis: def2-TZVP
   F. Weigend and R. Ahlrichs, Phys. Chem. Chem. Phys. 7, 3297 (2005).

----- AuxJ basis set information -----
Your calculation utilizes the auxiliary basis: def2/J
   F. Weigend, Phys. Chem. Chem. Phys. 8, 1057 (2006).

================================================================================
                                        WARNINGS
                       Please study these warnings very carefully!
================================================================================


WARNING: your system is open-shell and RHF/RKS was chosen
  ===> : WILL SWITCH to UHF/UKS


WARNING: Geometry Optimization
  ===> : Switching off AutoStart
         For restart on a previous wavefunction, please use MOREAD

================================================================================
                                       INPUT FILE
================================================================================
NAME = GIQMUO-S6.inp
|  1> ! PBE0 def2-TZVP  Opt Freq DEFGRID3
|  2> 
|  3> %maxcore 3600
|  4> 
|  5> %pal
|  6>     nprocs 16
|  7> end
|  8> 
|  9> *xyz 0 2
| 10> Mn 2.0802 2.0626 0.2159
| 11> O 1.3268 3.5213 -1.1441
| 12> O 2.1744 0.8147 -1.5371
| 13> O 2.74 0.5274 1.5401
| 14> O 1.8822 3.2433 1.9881
| 15> O 0.0464 1.2973 0.6426
| 16> N 4.2072 2.8322 -0.1062
| 17> N 6.5383 2.5328 0.1839
| 18> C 5.2722 2.159 0.3175
| 19> C 6.7448 3.688 -0.4215
| 20> C 5.7303 4.455 -0.9032
| 21> C 4.4607 3.9942 -0.7182
| 22> C 0.8299 4.7585 -3.0446
| 23> C 1.2891 3.4544 -2.3921
| 24> C 1.6039 2.3934 -3.2044
| 25> C 1.9846 1.1531 -2.7173
| 26> C 2.1518 0.0051 -3.7299
| 27> C 2.718 -0.8774 3.3971
| 28> C 2.5369 0.507 2.7698
| 29> C 2.1369 1.534 3.5986
| 30> C 1.8377 2.8031 3.1464
| 31> C 1.3575 3.8234 4.1843
| 32> F 1.6427 5.7465 -2.7227
| 33> F -0.3097 5.1359 -2.6187
| 34> F 0.802 4.743 -4.3233
| 35> F 2.3857 0.4091 -4.9233
| 36> F 1.1041 -0.7227 -3.7464
| 37> F 3.1566 -0.7733 -3.4223
| 38> F 1.6592 -1.6077 3.1815
| 39> F 3.7269 -1.537 2.8793
| 40> F 2.9253 -0.8415 4.6999
| 41> F 1.488 3.4651 5.4017
| 42> F 1.981 4.9419 4.0704
| 43> F 0.1323 4.1061 3.9938
| 44> H 5.0629 1.3764 0.7116
| 45> H 7.6158 3.8795 -0.5583
| 46> H 5.9107 5.2114 -1.3575
| 47> H 3.7388 4.4417 -1.0182
| 48> H 1.4612 2.4643 -4.0945
| 49> H 2.1386 0.9974 4.4667
| 50> H -0.7576 1.6954 0.5474
| 51> H -0.1665 0.4945 0.9853
| 52> *
| 53> 
| 54>                          ****END OF INPUT****
================================================================================

                       *****************************
                       * Geometry Optimization Run *
                       *****************************

Geometry optimization settings:
Update method            Update   .... BFGS
Choice of coordinates    CoordSys .... (2022) Redundant Internals
Initial Hessian          InHess   .... Almloef's Model
Max. no of cycles        MaxIter  .... 126

Convergence Tolerances:
Energy Change            TolE     ....  5.0000e-06 Eh
Max. Gradient            TolMAXG  ....  3.0000e-04 Eh/bohr
RMS Gradient             TolRMSG  ....  1.0000e-04 Eh/bohr
Max. Displacement        TolMAXD  ....  4.0000e-03 bohr
RMS Displacement         TolRMSD  ....  2.0000e-03 bohr
Strict Convergence                .... False

------------------------------------------------------------------------------
                        ORCA OPTIMIZATION COORDINATE SETUP
------------------------------------------------------------------------------

The optimization will be done in redundant internal coordinates (2022)
Making redundant internal coordinates   ...  (2022 redundants) done
Evaluating the initial hessian          ...  (Almloef) done
Evaluating the coordinates              ...  done
Calculating the B-matrix                .... done
Calculating the G-matrix                .... done
Diagonalizing the G-matrix              .... done
Small eigenvalue found = 7.111e-03
Small eigenvalue found = 1.056e-02
Small eigenvalue found = 1.331e-02
Small eigenvalue found = 1.463e-02
Small eigenvalue found = 2.297e-02
Small eigenvalue found = 2.647e-02
The first mode is                       ....  103
The number of degrees of freedom        ....  120

    -----------------------------------------------------------------
                    Redundant Internal Coordinates


    -----------------------------------------------------------------
         Definition                    Initial Value    Approx d2E/dq
    -----------------------------------------------------------------
      1. B(O   1,Mn  0)                  2.1319         0.370970   
      2. B(O   2,Mn  0)                  2.1539         0.342217   
      3. B(O   3,Mn  0)                  2.1321         0.370758   
      4. B(O   4,Mn  0)                  2.1387         0.361851   
      5. B(O   5,Mn  0)                  2.2145         0.273862   
      6. B(N   6,Mn  0)                  2.2848         0.211571   
      7. B(C   8,N   6)                  1.3293         0.699479   
      8. B(C   8,N   7)                  1.3269         0.705659   
      9. B(C   9,N   7)                  1.3205         0.722450   
     10. B(C  10,C   9)                  1.3600         0.697654   
     11. B(C  11,C  10)                  1.3632         0.689317   
     12. B(C  11,N   6)                  1.3376         0.678500   
     13. B(C  13,C  12)                  1.5288         0.375194   
     14. B(C  13,O   1)                  1.2504         0.934677   
     15. B(C  14,C  13)                  1.3728         0.665485   
     16. B(C  15,C  14)                  1.3858         0.634426   
     17. B(C  15,O   2)                  1.2423         0.962623   
     18. B(C  16,C  15)                  1.5399         0.360264   
     19. B(C  18,C  17)                  1.5306         0.372694   
     20. B(C  18,O   3)                  1.2465         0.947935   
     21. B(C  19,C  18)                  1.3790         0.650564   
     22. B(C  20,C  19)                  1.3801         0.647986   
     23. B(C  20,O   4)                  1.2399         0.971203   
     24. B(C  21,C  20)                  1.5326         0.370033   
     25. B(F  22,C  12)                  1.3192         0.674298   
     26. B(F  23,C  12)                  1.2738         0.796878   
     27. B(F  24,C  12)                  1.2791         0.781454   
     28. B(F  25,C  16)                  1.2815         0.774715   
     29. B(F  26,C  16)                  1.2758         0.791009   
     30. B(F  27,C  16)                  1.3077         0.703444   
     31. B(F  28,C  17)                  1.3042         0.712674   
     32. B(F  29,C  17)                  1.3119         0.692753   
     33. B(F  30,C  17)                  1.3197         0.673226   
     34. B(F  31,C  21)                  1.2757         0.791201   
     35. B(F  32,C  21)                  1.2856         0.763010   
     36. B(F  33,C  21)                  1.2717         0.802864   
     37. B(H  34,C   8)                  0.9009         0.721361   
     38. B(H  35,C   9)                  0.9022         0.717779   
     39. B(H  36,C  10)                  0.9006         0.722112   
     40. B(H  37,C  11)                  0.9008         0.721638   
     41. B(H  38,C  14)                  0.9043         0.712484   
     42. B(H  39,C  19)                  1.0206         0.464742   
     43. B(H  40,O   5)                  0.9022         0.642961   
     44. B(H  41,O   5)                  0.8985         0.651817   
     45. A(O   4,Mn  0,N   6)           90.9768         0.404730   
     46. A(O   3,Mn  0,O   4)           84.9233         0.447475   
     47. A(O   1,Mn  0,N   6)           90.4918         0.406513   
     48. A(O   4,Mn  0,O   5)           86.9100         0.423721   
     49. A(O   1,Mn  0,O   4)           96.7857         0.447522   
     50. A(O   2,Mn  0,O   3)           94.2885         0.442977   
     51. A(O   2,Mn  0,O   5)           89.8147         0.419521   
     52. A(O   2,Mn  0,N   6)           92.2754         0.400768   
     53. A(O   3,Mn  0,O   5)           85.1642         0.425568   
     54. A(O   1,Mn  0,O   2)           83.8391         0.443023   
     55. A(O   1,Mn  0,O   5)           91.9954         0.425611   
     56. A(O   3,Mn  0,N   6)           92.4075         0.406472   
     57. A(Mn  0,O   1,C  13)          127.6451         0.472878   
     58. A(Mn  0,O   2,C  15)          127.4940         0.468453   
     59. A(Mn  0,O   3,C  18)          125.0344         0.474054   
     60. A(Mn  0,O   4,C  20)          125.5503         0.474048   
     61. A(H  40,O   5,H  41)          102.9059         0.346120   
     62. A(Mn  0,O   5,H  40)          130.2114         0.372820   
     63. A(Mn  0,O   5,H  41)          126.8625         0.373700   
     64. A(Mn  0,N   6,C   8)          122.0287         0.405592   
     65. A(C   8,N   6,C  11)          115.7199         0.444996   
     66. A(Mn  0,N   6,C  11)          122.2471         0.403418   
     67. A(C   8,N   7,C   9)          116.2214         0.450808   
     68. A(N   6,C   8,H  34)          113.1570         0.403785   
     69. A(N   6,C   8,N   7)          126.1380         0.448172   
     70. A(N   7,C   8,H  34)          120.6947         0.404413   
     71. A(N   7,C   9,H  35)          113.9645         0.405739   
     72. A(C  10,C   9,H  35)          123.1433         0.405852   
     73. A(N   7,C   9,C  10)          122.6241         0.452870   
     74. A(C   9,C  10,C  11)          117.1308         0.452011   
     75. A(C   9,C  10,H  36)          120.1938         0.406284   
     76. A(C  11,C  10,H  36)          122.6090         0.405422   
     77. A(N   6,C  11,C  10)          122.1576         0.446762   
     78. A(C  10,C  11,H  37)          122.2251         0.405375   
     79. A(N   6,C  11,H  37)          115.6001         0.401650   
     80. A(F  22,C  12,F  24)          105.4526         0.449465   
     81. A(F  23,C  12,F  24)          108.5620         0.463353   
     82. A(C  13,C  12,F  24)          115.0166         0.409080   
     83. A(F  22,C  12,F  23)          104.3435         0.451063   
     84. A(C  13,C  12,F  23)          112.2563         0.410500   
     85. A(C  13,C  12,F  22)          110.4649         0.398572   
     86. A(C  12,C  13,C  14)          118.3980         0.401960   
     87. A(O   1,C  13,C  14)          128.6836         0.470612   
     88. A(O   1,C  13,C  12)          112.9178         0.424190   
     89. A(C  13,C  14,C  15)          123.1419         0.441470   
     90. A(C  15,C  14,H  38)          117.3555         0.398593   
     91. A(C  13,C  14,H  38)          119.0554         0.401960   
     92. A(C  14,C  15,C  16)          117.7697         0.395760   
     93. A(O   2,C  15,C  16)          113.8933         0.423345   
     94. A(O   2,C  15,C  14)          128.2910         0.469032   
     95. A(F  26,C  16,F  27)          107.1256         0.453936   
     96. A(F  25,C  16,F  27)          105.4540         0.452221   
     97. A(C  15,C  16,F  27)          111.8703         0.398692   
     98. A(F  25,C  16,F  26)          108.5239         0.461996   
     99. A(C  15,C  16,F  26)          110.1592         0.407026   
    100. A(C  15,C  16,F  25)          113.4021         0.405531   
    101. A(F  29,C  17,F  30)          106.4108         0.439642   
    102. A(F  28,C  17,F  30)          107.8161         0.441899   
    103. A(C  18,C  17,F  30)          113.4887         0.397993   
    104. A(F  28,C  17,F  29)          106.1143         0.444190   
    105. A(C  18,C  17,F  29)          112.5804         0.399999   
    106. A(C  18,C  17,F  28)          110.0392         0.402001   
    107. A(O   3,C  18,C  17)          113.5669         0.424752   
    108. A(C  17,C  18,C  19)          117.4900         0.399887   
    109. A(O   3,C  18,C  19)          128.9009         0.469871   
    110. A(C  20,C  19,H  39)          139.6925         0.371403   
    111. A(C  18,C  19,H  39)           96.8442         0.371657   
    112. A(C  18,C  19,C  20)          123.4226         0.441348   
    113. A(C  19,C  20,C  21)          117.2729         0.399105   
    114. A(O   4,C  20,C  21)          114.0499         0.426052   
    115. A(O   4,C  20,C  19)          128.6663         0.471623   
    116. A(F  32,C  21,F  33)          105.1037         0.461966   
    117. A(F  31,C  21,F  33)          107.6939         0.465041   
    118. A(C  20,C  21,F  33)          110.3897         0.410036   
    119. A(F  31,C  21,F  32)          106.2178         0.460733   
    120. A(C  20,C  21,F  32)          111.5458         0.406358   
    121. A(C  20,C  21,F  31)          115.2917         0.408975   
    122. D(C  13,O   1,Mn  0,O   2)     -9.4812         0.002179   
    123. D(C  13,O   1,Mn  0,O   4)    173.7967         0.002179   
    124. D(C  13,O   1,Mn  0,N   6)     82.7544         0.002179   
    125. D(C  13,O   1,Mn  0,O   5)    -99.0792         0.002179   
    126. D(C  15,O   2,Mn  0,O   1)      8.0509         0.002079   
    127. D(C  15,O   2,Mn  0,O   5)    100.0780         0.002079   
    128. D(C  15,O   2,Mn  0,N   6)    -82.1984         0.002079   
    129. D(C  15,O   2,Mn  0,O   3)   -174.7854         0.002079   
    130. D(C  18,O   3,Mn  0,N   6)    109.4311         0.002178   
    131. D(C  18,O   3,Mn  0,O   5)    -68.6544         0.002178   
    132. D(C  18,O   3,Mn  0,O   4)     18.6635         0.002178   
    133. D(C  18,O   3,O   1,C  13)   -165.4971         0.001500   
    134. D(C  18,O   3,Mn  0,O   2)   -158.1043         0.002178   
    135. D(C  20,O   4,Mn  0,O   1)    159.6466         0.002146   
    136. D(C  20,O   4,Mn  0,O   3)    -17.4113         0.002146   
    137. D(C  20,O   4,O   2,C  15)    165.8560         0.001500   
    138. D(C  20,O   4,Mn  0,O   5)     68.0024         0.002146   
    139. D(C  20,O   4,Mn  0,N   6)   -109.7418         0.002146   
    140. D(H  41,O   5,Mn  0,O   1)    159.7265         0.001900   
    141. D(H  41,O   5,Mn  0,O   4)   -103.5822         0.001900   
    142. D(H  41,O   5,Mn  0,O   2)     75.8976         0.001900   
    143. D(H  41,O   5,Mn  0,O   3)    -18.4219         0.001900   
    144. D(H  40,O   5,Mn  0,O   3)    159.6538         0.001900   
    145. D(H  40,O   5,Mn  0,O   2)   -106.0266         0.001900   
    146. D(H  40,O   5,Mn  0,O   4)     74.4935         0.001900   
    147. D(H  40,O   5,Mn  0,O   1)    -22.1978         0.001900   
    148. D(C   8,N   6,Mn  0,O   4)     95.4562         0.001742   
    149. D(C   8,N   6,Mn  0,O   2)    -83.8947         0.001742   
    150. D(C   8,N   6,Mn  0,O   3)     10.4969         0.001742   
    151. D(C  11,N   6,Mn  0,O   1)     13.0422         0.001742   
    152. D(C   8,N   6,Mn  0,O   1)   -167.7484         0.001742   
    153. D(C  11,N   6,O   5,H  41)    174.4538         0.001500   
    154. D(C  11,N   6,O   5,H  40)     -9.5884         0.001500   
    155. D(C   8,N   6,O   5,H  41)     -7.7801         0.001500   
    156. D(C   8,N   6,O   5,H  40)    168.1777         0.001500   
    157. D(C  11,N   6,Mn  0,O   4)    -83.7532         0.001742   
    158. D(C  11,N   6,Mn  0,O   3)   -168.7125         0.001742   
    159. D(C  11,N   6,Mn  0,O   2)     96.8959         0.001742   
    160. D(H  34,C   8,N   7,C   9)    179.1898         0.037348   
    161. D(N   6,C   8,N   7,C   9)      0.4388         0.037348   
    162. D(H  34,C   8,N   6,C  11)   -179.0344         0.040482   
    163. D(H  34,C   8,N   6,Mn  0)      1.7078         0.040482   
    164. D(N   7,C   8,N   6,C  11)     -0.2026         0.040482   
    165. D(N   7,C   8,N   6,Mn  0)   -179.4604         0.040482   
    166. D(H  35,C   9,N   7,C   8)   -175.0994         0.039330   
    167. D(C  10,C   9,N   7,C   8)     -0.8784         0.039330   
    168. D(H  36,C  10,C   9,H  35)     -2.3549         0.034260   
    169. D(H  36,C  10,C   9,N   7)   -176.0459         0.034260   
    170. D(C  11,C  10,C   9,H  35)    174.7594         0.034260   
    171. D(C  11,C  10,C   9,N   7)      1.0684         0.034260   
    172. D(H  37,C  11,C  10,H  36)     -2.1903         0.033380   
    173. D(H  37,C  11,C  10,C   9)   -179.2293         0.033380   
    174. D(N   6,C  11,C  10,H  36)    176.2302         0.033380   
    175. D(N   6,C  11,C  10,C   9)     -0.8088         0.033380   
    176. D(H  37,C  11,N   6,C   8)    178.9114         0.037865   
    177. D(H  37,C  11,N   6,Mn  0)     -1.8326         0.037865   
    178. D(C  10,C  11,N   6,C   8)      0.3930         0.037865   
    179. D(C  10,C  11,N   6,Mn  0)    179.6491         0.037865   
    180. D(O   1,C  13,C  12,F  24)    178.6797         0.010521   
    181. D(O   1,C  13,C  12,F  23)    -56.5322         0.010521   
    182. D(O   1,C  13,C  12,F  22)     59.4716         0.010521   
    183. D(C  14,C  13,O   1,Mn  0)      6.4952         0.070143   
    184. D(C  12,C  13,O   1,Mn  0)   -173.2305         0.070143   
    185. D(C  14,C  13,C  12,F  23)    123.7112         0.010521   
    186. D(C  14,C  13,C  12,F  22)   -120.2849         0.010521   
    187. D(H  38,C  14,C  13,C  12)     -5.5323         0.030941   
    188. D(H  38,C  14,C  13,O   1)    174.7549         0.030941   
    189. D(C  15,C  14,C  13,C  12)   -177.6481         0.030941   
    190. D(C  15,C  14,C  13,O   1)      2.6392         0.030941   
    191. D(C  16,C  15,C  14,H  38)      0.8118         0.027933   
    192. D(C  16,C  15,C  14,C  13)    173.0528         0.027933   
    193. D(O   2,C  15,C  14,H  38)   -176.5560         0.027933   
    194. D(O   2,C  15,C  14,C  13)     -4.3150         0.027933   
    195. D(C  16,C  15,O   2,Mn  0)    179.1681         0.075041   
    196. D(C  14,C  15,O   2,Mn  0)     -3.3792         0.075041   
    197. D(F  27,C  16,C  15,O   2)    -39.5924         0.009759   
    198. D(F  26,C  16,C  15,C  14)    -98.2962         0.009759   
    199. D(F  26,C  16,C  15,O   2)     79.4445         0.009759   
    200. D(F  25,C  16,C  15,C  14)     23.5507         0.009759   
    201. D(F  25,C  16,C  15,O   2)   -158.7086         0.009759   
    202. D(C  19,C  18,C  17,F  28)     98.4685         0.010391   
    203. D(O   3,C  18,C  17,F  30)    159.7117         0.010391   
    204. D(O   3,C  18,C  17,F  29)     38.7581         0.010391   
    205. D(O   3,C  18,C  17,F  28)    -79.3835         0.010391   
    206. D(C  19,C  18,O   3,Mn  0)    -15.7704         0.072441   
    207. D(C  19,C  18,C  17,F  29)   -143.3900         0.010391   
    208. D(C  17,C  18,O   3,Mn  0)    161.7809         0.072441   
    209. D(H  39,C  19,C  18,C  17)      3.2366         0.029472   
    210. D(H  39,C  19,C  18,O   3)   -179.2935         0.029472   
    211. D(C  20,C  19,C  18,C  17)   -174.8545         0.029472   
    212. D(C  20,C  19,C  18,O   3)      2.6154         0.029472   
    213. D(C  21,C  20,C  19,H  39)      0.7433         0.029223   
    214. D(C  21,C  20,C  19,C  18)    177.8128         0.029223   
    215. D(O   4,C  20,C  19,H  39)   -177.9703         0.029223   
    216. D(O   4,C  20,C  19,C  18)     -0.9008         0.029223   
    217. D(C  21,C  20,O   4,Mn  0)   -165.9548         0.076586   
    218. D(C  19,C  20,O   4,Mn  0)     12.7931         0.076586   
    219. D(F  33,C  21,C  20,O   4)     67.5945         0.010253   
    220. D(F  32,C  21,C  20,C  19)    132.2311         0.010253   
    221. D(F  32,C  21,C  20,O   4)    -48.8688         0.010253   
    222. D(F  31,C  21,C  20,C  19)     10.9878         0.010253   
    223. D(F  31,C  21,C  20,O   4)   -170.1121         0.010253   
    -----------------------------------------------------------------

Number of atoms                         .... 42
Number of degrees of freedom            .... 223


         *************************************************************
         *                GEOMETRY OPTIMIZATION CYCLE   1            *
         *************************************************************
---------------------------------
CARTESIAN COORDINATES (ANGSTROEM)
---------------------------------
  Mn     2.080200    2.062600    0.215900
  O      1.326800    3.521300   -1.144100
  O      2.174400    0.814700   -1.537100
  O      2.740000    0.527400    1.540100
  O      1.882200    3.243300    1.988100
  O      0.046400    1.297300    0.642600
  N      4.207200    2.832200   -0.106200
  N      6.538300    2.532800    0.183900
  C      5.272200    2.159000    0.317500
  C      6.744800    3.688000   -0.421500
  C      5.730300    4.455000   -0.903200
  C      4.460700    3.994200   -0.718200
  C      0.829900    4.758500   -3.044600
  C      1.289100    3.454400   -2.392100
  C      1.603900    2.393400   -3.204400
  C      1.984600    1.153100   -2.717300
  C      2.151800    0.005100   -3.729900
  C      2.718000   -0.877400    3.397100
  C      2.536900    0.507000    2.769800
  C      2.136900    1.534000    3.598600
  C      1.837700    2.803100    3.146400
  C      1.357500    3.823400    4.184300
  F      1.642700    5.746500   -2.722700
  F     -0.309700    5.135900   -2.618700
  F      0.802000    4.743000   -4.323300
  F      2.385700    0.409100   -4.923300
  F      1.104100   -0.722700   -3.746400
  F      3.156600   -0.773300   -3.422300
  F      1.659200   -1.607700    3.181500
  F      3.726900   -1.537000    2.879300
  F      2.925300   -0.841500    4.699900
  F      1.488000    3.465100    5.401700
  F      1.981000    4.941900    4.070400
  F      0.132300    4.106100    3.993800
  H      5.062900    1.376400    0.711600
  H      7.615800    3.879500   -0.558300
  H      5.910700    5.211400   -1.357500
  H      3.738800    4.441700   -1.018200
  H      1.461200    2.464300   -4.094500
  H      2.138600    0.997400    4.466700
  H     -0.757600    1.695400    0.547400
  H     -0.166500    0.494500    0.985300

----------------------------
CARTESIAN COORDINATES (A.U.)
----------------------------
  NO LB      ZA    FRAG     MASS         X           Y           Z
   0 Mn   25.0000    0    54.940    3.931008    3.897749    0.407992
   1 O     8.0000    0    15.999    2.507289    6.654293   -2.162036
   2 O     8.0000    0    15.999    4.109021    1.539560   -2.904698
   3 O     8.0000    0    15.999    5.177850    0.996642    2.910367
   4 O     8.0000    0    15.999    3.556843    6.128949    3.756965
   5 O     8.0000    0    15.999    0.087683    2.451542    1.214338
   6 N     7.0000    0    14.007    7.950456    5.352082   -0.200689
   7 N     7.0000    0    14.007   12.355596    4.786298    0.347521
   8 C     6.0000    0    12.011    9.963014    4.079919    0.599988
   9 C     6.0000    0    12.011   12.745825    6.969310   -0.796520
  10 C     6.0000    0    12.011   10.828698    8.418730   -1.706801
  11 C     6.0000    0    12.011    8.429501    7.547944   -1.357201
  12 C     6.0000    0    12.011    1.568284    8.992262   -5.753460
  13 C     6.0000    0    12.011    2.436046    6.527870   -4.520414
  14 C     6.0000    0    12.011    3.030932    4.522871   -6.055438
  15 C     6.0000    0    12.011    3.750350    2.179043   -5.134953
  16 C     6.0000    0    12.011    4.066313    0.009638   -7.048490
  17 C     6.0000    0    12.011    5.136276   -1.658046    6.419589
  18 C     6.0000    0    12.011    4.794046    0.958091    5.234163
  19 C     6.0000    0    12.011    4.038156    2.898840    6.800368
  20 C     6.0000    0    12.011    3.472750    5.297091    5.945834
  21 C     6.0000    0    12.011    2.565303    7.225179    7.907181
  22 F     9.0000    0    18.998    3.104253   10.859311   -5.145157
  23 F     9.0000    0    18.998   -0.585248    9.705444   -4.948626
  24 F     9.0000    0    18.998    1.515560    8.962971   -8.169853
  25 F     9.0000    0    18.998    4.508320    0.773087   -9.303689
  26 F     9.0000    0    18.998    2.086447   -1.365705   -7.079670
  27 F     9.0000    0    18.998    5.965110   -1.461325   -6.467210
  28 F     9.0000    0    18.998    3.135434   -3.038113    6.012164
  29 F     9.0000    0    18.998    7.042820   -2.904509    5.441088
  30 F     9.0000    0    18.998    5.528016   -1.590205    8.881524
  31 F     9.0000    0    18.998    2.811912    6.548090   10.207734
  32 F     9.0000    0    18.998    3.743547    9.338838    7.691941
  33 F     9.0000    0    18.998    0.250011    7.759404    7.547188
  34 H     1.0000    0     1.008    9.567494    2.601019    1.344729
  35 H     1.0000    0     1.008   14.391776    7.331193   -1.055034
  36 H     1.0000    0     1.008   11.169604    9.848119   -2.565303
  37 H     1.0000    0     1.008    7.065308    8.393597   -1.924119
  38 H     1.0000    0     1.008    2.761268    4.656852   -7.737484
  39 H     1.0000    0     1.008    4.041368    1.884813    8.440840
  40 H     1.0000    0     1.008   -1.431657    3.203842    1.034436
  41 H     1.0000    0     1.008   -0.314639    0.934470    1.861947

--------------------------------
INTERNAL COORDINATES (ANGSTROEM)
--------------------------------
 Mn     0   0   0     0.000000000000     0.00000000     0.00000000
 O      1   0   0     2.131904606215     0.00000000     0.00000000
 O      1   2   0     2.153865606300    83.83912479     0.00000000
 O      1   2   3     2.132060205529   176.61132279   303.40505617
 O      1   2   3     2.138679342492    96.78574409   183.27786758
 O      1   2   3     2.214520133121    91.99544116   270.40201060
 N      1   2   3     2.284767290119    90.49181447    92.23556065
 N      7   1   2     2.368084791556   148.93154106   191.77842127
 C      8   7   1     1.326870231032    26.95722049     0.88651426
 C      8   7   1     1.320469026521    89.26483681   181.28021450
 C     10   8   7     1.359975786549   122.62414944   359.32049628
 C      7   1   2     1.337553830692   122.24710359    13.04221688
 C      2   1   3     2.321524003753   164.26277706   335.23424057
 C      2   1   3     1.250360308071   127.64513932   350.51880489
 C     14   2   1     1.372826037778   128.68363477     6.49516179
 C      3   1   2     1.242340790605   127.49397834     8.05093277
 C     16   3   1     1.539876163852   113.89332568   179.16807591
 C      4   1   2     2.328603882158   157.93727309   288.33105147
 C      4   1   2     1.246526317412   125.03435350   258.23223986
 C     19   4   1     1.378999071791   128.90094396   344.22960243
 C      5   1   2     1.239925473567   125.55034246   159.64664079
 C     21   5   1     1.532592750864   114.04986079   194.04519530
 F     13   2   1     1.319245030311    93.86989888   254.11267490
 F     13   2   1     1.273777739639    94.33970801   149.38959433
 F     13   2   1     1.279098256585   144.74578873    18.05524916
 F     17  16   3     1.281455722996   113.40214159   201.29135907
 F     17  16   3     1.275790100291   110.15924145    79.44447114
 F     17  16   3     1.307726026353   111.87028904   320.40764480
 F     18   4   1     1.304177476420   102.33659727    66.09138049
 F     18   4   1     1.311894892893    88.92816885   172.35591971
 F     18   4   1     1.319677968294   140.29814003   287.17905569
 F     22  21   5     1.275724068911   115.29171972   189.88794791
 F     22  21   5     1.285600136123   111.54583070   311.13119270
 F     22  21   5     1.271740767609   110.38970766    67.59452971
 H      9   8   7     0.900879603499   120.69468911   178.75093362
 H     10   8   7     0.902234720015   113.96452130   185.09955025
 H     11  10   8     0.900596252491   120.19382782   183.95410410
 H     12   7   1     0.900775143973   115.60006387   358.16742871
 H     15  14   2     0.904250026265   119.05539233   174.75494465
 H     20  19   4     1.020558699929    96.84417220   180.70647320
 H      6   1   2     0.902198786299   130.21139206   337.80222253
 H      6   1   2     0.898475119299   126.86249035   159.72647716

---------------------------
INTERNAL COORDINATES (A.U.)
---------------------------
 Mn     0   0   0     0.000000000000     0.00000000     0.00000000
 O      1   0   0     4.028715849391     0.00000000     0.00000000
 O      1   2   0     4.070216125178    83.83912479     0.00000000
 O      1   2   3     4.029009889482   176.61132279   303.40505617
 O      1   2   3     4.041518245584    96.78574409   183.27786758
 O      1   2   3     4.184836569654    91.99544116   270.40201060
 N      1   2   3     4.317584458067    90.49181447    92.23556065
 N      7   1   2     4.475031717945   148.93154106   191.77842127
 C      8   7   1     2.507421351904    26.95722049     0.88651426
 C      8   7   1     2.495324828449    89.26483681   181.28021450
 C     10   8   7     2.569981785342   122.62414944   359.32049628
 C      7   1   2     2.527610429386   122.24710359    13.04221688
 C      2   1   3     4.387044580417   164.26277706   335.23424057
 C      2   1   3     2.362838550980   127.64513932   350.51880489
 C     14   2   1     2.594265240916   128.68363477     6.49516179
 C      3   1   2     2.347683859242   127.49397834     8.05093277
 C     16   3   1     2.909944229834   113.89332568   179.16807591
 C      4   1   2     4.400423611664   157.93727309   288.33105147
 C      4   1   2     2.355593358634   125.03435350   258.23223986
 C     19   4   1     2.605930584616   128.90094396   344.22960243
 C      5   1   2     2.343119571514   125.55034246   159.64664079
 C     21   5   1     2.896180573965   114.04986079   194.04519530
 F     13   2   1     2.493011810824    93.86989888   254.11267490
 F     13   2   1     2.407091083403    94.33970801   149.38959433
 F     13   2   1     2.417145403323   144.74578873    18.05524916
 F     17  16   3     2.421600369209   113.40214159   201.29135907
 F     17  16   3     2.410893893918   110.15924145    79.44447114
 F     17  16   3     2.471244048008   111.87028904   320.40764480
 F     18   4   1     2.464538260461   102.33659727    66.09138049
 F     18   4   1     2.479122064059    88.92816885   172.35591971
 F     18   4   1     2.493829945045   140.29814003   287.17905569
 F     22  21   5     2.410769112694   115.29171972   189.88794791
 F     22  21   5     2.429432175005   111.54583070   311.13119270
 F     22  21   5     2.403241764125   110.38970766    67.59452971
 H      9   8   7     1.702415730248   120.69468911   178.75093362
 H     10   8   7     1.704976529343   113.96452130   185.09955025
 H     11  10   8     1.701880274443   120.19382782   183.95410410
 H     12   7   1     1.702218330353   115.60006387   358.16742871
 H     15  14   2     1.708784906232   119.05539233   174.75494465
 H     20  19   4     1.928576446456    96.84417220   180.70647320
 H      6   1   2     1.704908624462   130.21139206   337.80222253
 H      6   1   2     1.697871913618   126.86249035   159.72647716

---------------------
BASIS SET INFORMATION
---------------------
There are 6 groups of distinct atoms

 Group   1 Type Mn  : 17s11p7d1f contracted to 6s4p4d1f pattern {842111/6311/4111/1}
 Group   2 Type O   : 11s6p2d1f contracted to 5s3p2d1f pattern {62111/411/11/1}
 Group   3 Type N   : 11s6p2d1f contracted to 5s3p2d1f pattern {62111/411/11/1}
 Group   4 Type C   : 11s6p2d1f contracted to 5s3p2d1f pattern {62111/411/11/1}
 Group   5 Type F   : 11s6p2d1f contracted to 5s3p2d1f pattern {62111/411/11/1}
 Group   6 Type H   : 5s1p contracted to 3s1p pattern {311/1}

Atom   0Mn   basis set group =>   1
Atom   1O    basis set group =>   2
Atom   2O    basis set group =>   2
Atom   3O    basis set group =>   2
Atom   4O    basis set group =>   2
Atom   5O    basis set group =>   2
Atom   6N    basis set group =>   3
Atom   7N    basis set group =>   3
Atom   8C    basis set group =>   4
Atom   9C    basis set group =>   4
Atom  10C    basis set group =>   4
Atom  11C    basis set group =>   4
Atom  12C    basis set group =>   4
Atom  13C    basis set group =>   4
Atom  14C    basis set group =>   4
Atom  15C    basis set group =>   4
Atom  16C    basis set group =>   4
Atom  17C    basis set group =>   4
Atom  18C    basis set group =>   4
Atom  19C    basis set group =>   4
Atom  20C    basis set group =>   4
Atom  21C    basis set group =>   4
Atom  22F    basis set group =>   5
Atom  23F    basis set group =>   5
Atom  24F    basis set group =>   5
Atom  25F    basis set group =>   5
Atom  26F    basis set group =>   5
Atom  27F    basis set group =>   5
Atom  28F    basis set group =>   5
Atom  29F    basis set group =>   5
Atom  30F    basis set group =>   5
Atom  31F    basis set group =>   5
Atom  32F    basis set group =>   5
Atom  33F    basis set group =>   5
Atom  34H    basis set group =>   6
Atom  35H    basis set group =>   6
Atom  36H    basis set group =>   6
Atom  37H    basis set group =>   6
Atom  38H    basis set group =>   6
Atom  39H    basis set group =>   6
Atom  40H    basis set group =>   6
Atom  41H    basis set group =>   6
---------------------------------
AUXILIARY/J BASIS SET INFORMATION
---------------------------------
There are 6 groups of distinct atoms

 Group   1 Type Mn  : 19s5p5d3f3g contracted to 8s5p5d2f3g pattern {121111111/11111/11111/21/111}
 Group   2 Type O   : 12s5p4d2f1g contracted to 6s4p3d1f1g pattern {711111/2111/211/2/1}
 Group   3 Type N   : 12s5p4d2f1g contracted to 6s4p3d1f1g pattern {711111/2111/211/2/1}
 Group   4 Type C   : 12s5p4d2f1g contracted to 6s4p3d1f1g pattern {711111/2111/211/2/1}
 Group   5 Type F   : 12s5p4d2f1g contracted to 6s4p3d1f1g pattern {711111/2111/211/2/1}
 Group   6 Type H   : 5s2p1d contracted to 3s1p1d pattern {311/2/1}

Atom   0Mn   basis set group =>   1
Atom   1O    basis set group =>   2
Atom   2O    basis set group =>   2
Atom   3O    basis set group =>   2
Atom   4O    basis set group =>   2
Atom   5O    basis set group =>   2
Atom   6N    basis set group =>   3
Atom   7N    basis set group =>   3
Atom   8C    basis set group =>   4
Atom   9C    basis set group =>   4
Atom  10C    basis set group =>   4
Atom  11C    basis set group =>   4
Atom  12C    basis set group =>   4
Atom  13C    basis set group =>   4
Atom  14C    basis set group =>   4
Atom  15C    basis set group =>   4
Atom  16C    basis set group =>   4
Atom  17C    basis set group =>   4
Atom  18C    basis set group =>   4
Atom  19C    basis set group =>   4
Atom  20C    basis set group =>   4
Atom  21C    basis set group =>   4
Atom  22F    basis set group =>   5
Atom  23F    basis set group =>   5
Atom  24F    basis set group =>   5
Atom  25F    basis set group =>   5
Atom  26F    basis set group =>   5
Atom  27F    basis set group =>   5
Atom  28F    basis set group =>   5
Atom  29F    basis set group =>   5
Atom  30F    basis set group =>   5
Atom  31F    basis set group =>   5
Atom  32F    basis set group =>   5
Atom  33F    basis set group =>   5
Atom  34H    basis set group =>   6
Atom  35H    basis set group =>   6
Atom  36H    basis set group =>   6
Atom  37H    basis set group =>   6
Atom  38H    basis set group =>   6
Atom  39H    basis set group =>   6
Atom  40H    basis set group =>   6
Atom  41H    basis set group =>   6


           ************************************************************
           *        Program running with 16 parallel MPI-processes    *
           *              working on a common directory               *
           ************************************************************
------------------------------------------------------------------------------
                             ORCA STARTUP CALCULATIONS
                           -- RI-GTO INTEGRALS CHOSEN --
------------------------------------------------------------------------------
------------------------------------------------------------------------------
                   ___                                                        
                  /   \      - P O W E R E D   B Y -                         
                 /     \                                                     
                 |  |  |   _    _      __       _____    __    __             
                 |  |  |  | |  | |    /  \     |  _  \  |  |  /  |          
                  \  \/   | |  | |   /    \    | | | |  |  | /  /          
                 / \  \   | |__| |  /  /\  \   | |_| |  |  |/  /          
                |  |  |   |  __  | /  /__\  \  |    /   |      \           
                |  |  |   | |  | | |   __   |  |    \   |  |\   \          
                \     /   | |  | | |  |  |  |  | |\  \  |  | \   \       
                 \___/    |_|  |_| |__|  |__|  |_| \__\ |__|  \__/        
                                                                              
                      - O R C A' S   B I G   F R I E N D -                    
                                      &                                       
                       - I N T E G R A L  F E E D E R -                       
                                                                              
 v1 FN, 2020, v2 2021, v3 2022-2024                                           
------------------------------------------------------------------------------


----------------------
SHARK INTEGRAL PACKAGE
----------------------

Number of atoms                             ...     42
Number of basis functions                   ...   1116
Number of shells                            ...    410
Maximum angular momentum                    ...      3
Integral batch strategy                     ... SHARK/LIBINT Hybrid
RI-J (if used) integral strategy            ... SPLIT-RIJ (Revised 2003 algorithm where possible)
Printlevel                                  ...      1
Contraction scheme used                     ... SEGMENTED contraction
Prescreening option                         ... SCHWARTZ
   Thresh                                   ... 2.500e-11
   Tcut                                     ... 2.500e-12
   Tpresel                                  ... 2.500e-12 
Coulomb Range Separation                    ... NOT USED
Exchange Range Separation                   ... NOT USED
Multipole approximations                    ... NOT USED
Finite Nucleus Model                        ... NOT USED
CABS basis                                  ... NOT available
Auxiliary Coulomb fitting basis             ... AVAILABLE
   # of basis functions in Aux-J            ...   1794
   # of shells in Aux-J                     ...    558
   Maximum angular momentum in Aux-J        ...      4
Auxiliary J/K fitting basis                 ... NOT available
Auxiliary Correlation fitting basis         ... NOT available
Auxiliary 'external' fitting basis          ... NOT available

Checking pre-screening integrals            ... done (  0.0 sec) Dimension = 410
Check shell pair data                       ... done (  0.0 sec)
Shell pair information
Shell pair cut-off parameter TPreSel        ...   2.5e-12
Total number of shell pairs                 ...     84255
Shell pairs after pre-screening             ...     46289
Total number of primitive shell pairs       ...    277949
Primitive shell pairs kept                  ...     93817
          la=0 lb=0:  10002 shell pairs
          la=1 lb=0:  13126 shell pairs
          la=1 lb=1:   4310 shell pairs
          la=2 lb=0:   6798 shell pairs
          la=2 lb=1:   4626 shell pairs
          la=2 lb=2:   1186 shell pairs
          la=3 lb=0:   2968 shell pairs
          la=3 lb=1:   2058 shell pairs
          la=3 lb=2:    993 shell pairs
          la=3 lb=3:    222 shell pairs

Calculating one electron integrals          ... done (  0.1 sec)
done (  0.2 sec)
Calculating Nuclear repulsion               ... done (  0.0 sec) ENN=   4754.679386068193 Eh

Diagonalization of the overlap matrix:
Smallest eigenvalue                        ... 4.950e-05
Time for diagonalization                   ...    0.122 sec
Threshold for overlap eigenvalues          ... 1.000e-07
Number of eigenvalues below threshold      ... 0
Time for construction of square roots      ...    0.138 sec
Total time needed                          ...    0.283 sec

-------------------
DFT GRID GENERATION
-------------------

General Integration Accuracy     IntAcc      ... 4.959
Radial Grid Type                 RadialGrid  ... OptM3 with GC (2021)
Angular Grid (max. ang.)         AngularGrid ... 6 (Lebedev-590)
Angular grid pruning method      GridPruning ... 4 (adaptive)
Weight generation scheme         WeightScheme... mBecke (2022)
Basis function cutoff            BFCut       ... 1.0000e-11
Integration weight cutoff        WCut        ... 1.0000e-14
Partially contracted basis set               ... off
Rotationally invariant grid construction     ... off
Angular grids for H and He will be reduced by one unit
Core-polarized basis detected: some atoms will have their core
                               angular grid increased.

Total number of grid points                  ...   566537
Total number of batches                      ...     8874
Average number of points per batch           ...       63
Average number of grid points per atom       ...    13489

--------------------
COSX GRID GENERATION
--------------------

GRIDX 1
-------
General Integration Accuracy     IntAcc      ... 4.020
Radial Grid Type                 RadialGrid  ... OptM3 with GC (2021)
Angular Grid (max. ang.)         AngularGrid ... 2 (Lebedev-110)
Angular grid pruning method      GridPruning ... 4 (adaptive)
Weight generation scheme         WeightScheme... mBecke (2022)
Basis function cutoff            BFCut       ... 1.0000e-11
Integration weight cutoff        WCut        ... 1.0000e-14
Partially contracted basis set               ... on
Rotationally invariant grid construction     ... off
Angular grids for H and He will be reduced by one unit
Core-polarized basis detected: some atoms will have their core
                               angular grid increased.

Total number of grid points                  ...    69853
Total number of batches                      ...      567
Average number of points per batch           ...      123
Average number of grid points per atom       ...     1663
UseSFitting                                  ... on

GRIDX 2
-------
General Integration Accuracy     IntAcc      ... 4.338
Radial Grid Type                 RadialGrid  ... OptM3 with GC (2021)
Angular Grid (max. ang.)         AngularGrid ... 3 (Lebedev-194)
Angular grid pruning method      GridPruning ... 4 (adaptive)
Weight generation scheme         WeightScheme... mBecke (2022)
Basis function cutoff            BFCut       ... 1.0000e-11
Integration weight cutoff        WCut        ... 1.0000e-14
Partially contracted basis set               ... on
Rotationally invariant grid construction     ... off
Angular grids for H and He will be reduced by one unit
Core-polarized basis detected: some atoms will have their core
                               angular grid increased.

Total number of grid points                  ...   147611
Total number of batches                      ...     1174
Average number of points per batch           ...      125
Average number of grid points per atom       ...     3515
UseSFitting                                  ... on

GRIDX 3
-------
General Integration Accuracy     IntAcc      ... 4.871
Radial Grid Type                 RadialGrid  ... OptM3 with GC (2021)
Angular Grid (max. ang.)         AngularGrid ... 4 (Lebedev-302)
Angular grid pruning method      GridPruning ... 4 (adaptive)
Weight generation scheme         WeightScheme... mBecke (2022)
Basis function cutoff            BFCut       ... 1.0000e-11
Integration weight cutoff        WCut        ... 1.0000e-14
Partially contracted basis set               ... on
Rotationally invariant grid construction     ... off
Angular grids for H and He will be reduced by one unit
Core-polarized basis detected: some atoms will have their core
                               angular grid increased.

Total number of grid points                  ...   265474
Total number of batches                      ...     2097
Average number of points per batch           ...      126
Average number of grid points per atom       ...     6321
UseSFitting                                  ... on
Initializing property integral containers    ... done (  0.0 sec)

SHARK setup successfully completed in   9.6 seconds

Maximum memory used throughout the entire STARTUP-calculation: 167.2 MB


           ************************************************************
           *        Program running with 16 parallel MPI-processes    *
           *              working on a common directory               *
           ************************************************************
-------------------------------------------------------------------------------
                                 ORCA GUESS
                   Start orbitals & Density for SCF / CASSCF
-------------------------------------------------------------------------------

------------
SCF SETTINGS
------------
Hamiltonian:
 Density Functional     Method          .... DFT(GTOs)
 Exchange Functional    Exchange        .... PBE
   PBE kappa parameter   XKappa         ....  0.804000
   PBE mue parameter    XMuePBE         ....  0.219520
 Correlation Functional Correlation     .... PBE
   PBE beta parameter  CBetaPBE         ....  0.066725
 LDA part of GGA corr.  LDAOpt          .... PW91-LDA
 Gradients option       PostSCFGGA      .... off
 Hybrid DFT is turned on
   Fraction HF Exchange ScalHFX         ....  0.250000
   Scaling of DF-GGA-X  ScalDFX         ....  0.750000
   Scaling of DF-GGA-C  ScalDFC         ....  1.000000
   Scaling of DF-LDA-C  ScalLDAC        ....  1.000000
   Perturbative correction              ....  0.000000
   NL short-range parameter             ....  6.900000
 RI-approximation to the Coulomb term is turned on
   Number of AuxJ basis functions       .... 1794
   RIJ-COSX (HFX calculated with COS-X)).... on


General Settings:
 Integral files         IntName         .... GIQMUO-S6
 Hartree-Fock type      HFTyp           .... UHF
 Total Charge           Charge          ....    0
 Multiplicity           Mult            ....    2
 Number of Electrons    NEL             ....  279
 Basis Dimension        Dim             .... 1116
 Nuclear Repulsion      ENuc            ....   4754.6793860682 Eh

Convergence Acceleration:
 AO-DIIS                CNVDIIS         .... on
   Start iteration      DIISMaxIt       ....    12
   Startup error        DIISStart       ....  0.200000
   # of expansion vecs  DIISMaxEq       ....     5
   Bias factor          DIISBfac        ....   1.050
   Max. coefficient     DIISMaxC        ....  10.000
 MO-DIIS                CNVKDIIS        .... off
 Trust-Rad. Augm. Hess. CNVTRAH         .... auto
   Auto Start mean grad. ratio tolernc. ....  1.125000
   Auto Start start iteration           ....    50
   Auto Start num. interpolation iter.  ....    10
   Max. Number of Micro iterations      ....    24
   Max. Number of Macro iterations      .... Maxiter - #DIIS iter
   Number of Davidson start vectors     ....     2
   Converg. threshold    (grad. norm)   ....   1.000e-05
   Grad. Scal. Fac. for Micro threshold ....   0.100
   Minimum threshold for Micro iter.    ....   1.000e-02
   NR start threshold (gradient norm)   ....   1.000e-04
   Initial trust radius                 ....   0.400
   Minimum AH scaling param. (alpha)    ....   1.000
   Maximum AH scaling param. (alpha)    .... 1000.000
   Quad. conv. algorithm                .... NR
   White noise on init. David. guess    .... on
   Maximum white noise                  ....   0.010
   Pseudo random numbers                .... off
   Inactive MOs                         .... canonical
   Orbital update algorithm             .... Taylor
   Preconditioner                       .... Diag
   Full preconditioner red. dimension   ....   250
 SOSCF                  CNVSOSCF        .... on
   Start iteration      SOSCFMaxIt      ....   150
   Startup grad/error   SOSCFStart      ....  0.003300
   Hessian update       SOSCFHessUp     .... L-BFGS
 Level Shifting         CNVShift        .... on
   Level shift para.    LevelShift      ....    0.2500
   Turn off err/grad.   ShiftErr        ....    0.0010
 Zerner damping         CNVZerner       .... off
 Static damping         CNVDamp         .... on
   Fraction old density DampFac         ....    0.7000
   Max. Damping (<1)    DampMax         ....    0.9800
   Min. Damping (>=0)   DampMin         ....    0.0000
   Turn off err/grad.   DampErr         ....    0.1000

SCF Procedure:
 Maximum # iterations   MaxIter         ....   125
 SCF integral mode      SCFMode         .... Direct
   Integral package                     .... SHARK and LIBINT hybrid scheme
 Reset frequency        DirectResetFreq ....    20
 Integral Threshold     Thresh          ....  2.500e-11 Eh
 Primitive CutOff       TCut            ....  2.500e-12 Eh

Convergence Tolerance:
 Convergence Check Mode ConvCheckMode   .... Total+1el-Energy
 Convergence forced     ConvForced      .... 0
 Energy Change          TolE            ....  1.000e-08 Eh
 1-El. energy change                    ....  1.000e-05 Eh
 Orbital Gradient       TolG            ....  1.000e-05
 Orbital Rotation angle TolX            ....  1.000e-05
 DIIS Error             TolErr          ....  5.000e-07

------------------------------
INITIAL GUESS: MODEL POTENTIAL
------------------------------
Loading Hartree-Fock densities                     ... done
Calculating cut-offs                               ... done
Initializing the effective Hamiltonian             ... done
Setting up the integral package (SHARK)            ... done
done (   0.3 sec)
Making the grid                                    ... done (   0.3 sec)
Mapping shells                                     ... done
Starting the XC term evaluation                    ... done (   0.2 sec)
  promolecular density results
     # of electrons  =    278.994639248
     EX              =   -299.069495581
     EC              =     -9.954440222
     EX+EC           =   -309.023935802
done (   0.1 sec)
done (   0.1 sec)
Back transforming the eigenvectors                 ... done (   0.1 sec)
done
                      ------------------
                      INITIAL GUESS DONE (   1.4 sec)
                      ------------------
             **** ENERGY FILE WAS UPDATED (GIQMUO-S6.en.tmp) ****
Finished Guess after   1.9 sec
Maximum memory used throughout the entire GUESS-calculation: 96.2 MB


           ************************************************************
           *        Program running with 16 parallel MPI-processes    *
           *              working on a common directory               *
           ************************************************************

-------------------------------------------------------------------------------------------
                                      ORCA LEAN-SCF
                              memory conserving SCF solver
-------------------------------------------------------------------------------------------

----------------------------------------D-I-I-S--------------------------------------------
Iteration    Energy (Eh)           Delta-E    RMSDP     MaxDP     DIISErr   Damp  Time(sec)
-------------------------------------------------------------------------------------------
               ***  Starting incremental Fock matrix formation  ***
    1    -3370.4904908831249486     0.00e+00  4.36e-04  6.00e-02  1.44e-01  0.700  22.8
Warning: op=1 Small HOMO/LUMO gap (   0.087) - skipping pre-diagonalization
         Will do a full diagonalization
    2    -3370.8900377190975632    -4.00e-01  2.91e-04  4.07e-02  6.13e-02  0.700  12.5
                               ***Turning on AO-DIIS***
    3    -3371.0459343115799129    -1.56e-01  1.12e-04  1.07e-02  2.57e-02  0.700  10.2
    4    -3371.1449597303453629    -9.90e-02  2.12e-04  2.50e-02  1.34e-02  0.000   9.8
    5    -3371.3700466992486326    -2.25e-01  5.98e-05  6.39e-03  3.34e-03  0.000  10.5
    6    -3371.3717349609787561    -1.69e-03  3.06e-05  3.41e-03  4.06e-03  0.000   9.1
    7    -3371.3723117638928670    -5.77e-04  1.66e-05  2.11e-03  5.23e-03  0.000   8.8
                              *** Initializing SOSCF ***
---------------------------------------S-O-S-C-F--------------------------------------
Iteration    Energy (Eh)           Delta-E    RMSDP     MaxDP     MaxGrad    Time(sec)
--------------------------------------------------------------------------------------
    8    -3371.3727850124587349    -4.73e-04  1.33e-05  2.52e-03  1.66e-03     9.2
               *** Restarting incremental Fock matrix formation ***
    9    -3371.3730185797649028    -2.34e-04  1.86e-05  4.51e-03  2.87e-03    22.3
   10    -3371.3732573435227096    -2.39e-04  6.60e-05  1.82e-02  2.72e-03    14.7
   11    -3371.3736545665633457    -3.97e-04  5.91e-05  1.80e-02  3.14e-03    16.4
               *** Scaled step length from 1.670080 to 0.200000 ***
   12    -3371.3744217188059338    -7.67e-04  1.25e-04  3.67e-02  4.01e-03    15.7
               *** Scaled step length from 0.289748 to 0.200000 ***
   13    -3371.3757720291023361    -1.35e-03  1.28e-04  3.42e-02  5.60e-03    16.8
   14    -3371.3765400778820549    -7.68e-04  5.12e-05  1.08e-02  6.94e-03    16.4
   15    -3371.3780431436880463    -1.50e-03  7.20e-05  2.41e-02  5.22e-03    16.4
               *** Scaled step length from 0.313033 to 0.200000 ***
   16    -3371.3802387788418855    -2.20e-03  1.30e-04  3.64e-02  3.63e-03    16.6
               *** Scaled step length from 0.224789 to 0.200000 ***
   17    -3371.3821552348636033    -1.92e-03  1.30e-04  3.93e-02  6.21e-03    16.7
   18    -3371.3830739451468617    -9.19e-04  3.79e-05  6.39e-03  7.81e-03    16.9
   19    -3371.3839693959089345    -8.95e-04  3.36e-05  8.47e-03  2.30e-03    16.0
   20    -3371.3843156481980259    -3.46e-04  3.11e-05  6.37e-03  2.20e-03    15.9
   21    -3371.3845167107983798    -2.01e-04  1.62e-05  3.38e-03  1.53e-03    14.9
   22    -3371.3846165615723294    -9.99e-05  1.54e-05  3.75e-03  1.06e-03    14.1
   23    -3371.3846777759481483    -6.12e-05  1.94e-05  5.87e-03  9.50e-04    13.9
   24    -3371.3847243444406558    -4.66e-05  1.34e-05  3.12e-03  7.98e-04    14.0
   25    -3371.3847537749679759    -2.94e-05  8.81e-06  2.33e-03  8.24e-04    13.8
   26    -3371.3847788784751174    -2.51e-05  1.32e-05  4.00e-03  6.95e-04    13.1
   27    -3371.3848095685116277    -3.07e-05  3.51e-05  1.15e-02  5.41e-04    13.0
   28    -3371.3848587159236558    -4.91e-05  1.81e-05  6.35e-03  6.21e-04    14.3
               *** Restarting incremental Fock matrix formation ***
   29    -3371.3848799796505773    -2.13e-05  1.37e-05  4.94e-03  3.65e-04    22.8
   30    -3371.3848952834996453    -1.53e-05  1.01e-05  3.11e-03  3.40e-04    13.6
   31    -3371.3849050295402776    -9.75e-06  9.90e-06  2.42e-03  3.20e-04    13.0
   32    -3371.3849139377753090    -8.91e-06  5.97e-06  1.42e-03  3.45e-04    12.8
   33    -3371.3849210857615617    -7.15e-06  1.36e-05  3.76e-03  3.49e-04    12.2
   34    -3371.3849347630830380    -1.37e-05  3.45e-05  9.54e-03  4.13e-04    13.3
               *** Scaled step length from 0.347024 to 0.200000 ***
   35    -3371.3849683569069384    -3.36e-05  1.25e-04  3.12e-02  7.32e-04    14.8
               *** Scaled step length from 0.265663 to 0.200000 ***
   36    -3371.3850750112014794    -1.07e-04  1.27e-04  2.65e-02  1.73e-03    16.7
   37    -3371.3851336711750264    -5.87e-05  4.99e-05  1.84e-02  2.75e-03    16.1
               *** Scaled step length from 0.294736 to 0.200000 ***
   38    -3371.3854744060090525    -3.41e-04  1.29e-04  4.16e-02  2.23e-03    15.0
   39    -3371.3860999916569199    -6.26e-04  7.95e-05  1.90e-02  2.04e-03    16.7
   40    -3371.3864693328450812    -3.69e-04  1.04e-04  2.78e-02  3.00e-03    17.0
   41    -3371.3865481024449764    -7.88e-05  8.81e-05  2.18e-02  2.23e-03    16.0
   42    -3371.3867816787224001    -2.34e-04  1.89e-05  5.46e-03  1.08e-03    16.2
   43    -3371.3868473231941607    -6.56e-05  3.12e-05  1.12e-02  4.59e-04    14.5
   44    -3371.3868770286708241    -2.97e-05  1.26e-05  4.00e-03  4.92e-04    14.5
   45    -3371.3868867794863036    -9.75e-06  3.84e-06  5.20e-04  2.70e-04    13.0
   46    -3371.3868907241130728    -3.94e-06  2.59e-06  6.41e-04  1.40e-04    12.6
   47    -3371.3868924636408337    -1.74e-06  2.90e-06  1.16e-03  8.20e-05    11.1
   48    -3371.3868932518616930    -7.88e-07  1.99e-06  7.97e-04  6.23e-05    11.0
               *** Restarting incremental Fock matrix formation ***
   49    -3371.3868935381933625    -2.86e-07  1.56e-06  4.20e-04  3.89e-05    22.6
   50    -3371.3868936744065650    -1.36e-07  5.12e-07  8.35e-05  2.30e-05    10.5
   51    -3371.3868937281376930    -5.37e-08  4.82e-07  9.94e-05  1.63e-05     8.8
   52    -3371.3868937391625877    -1.10e-08  3.48e-07  6.46e-05  1.54e-05     8.8
   53    -3371.3868937050747263     3.41e-08  3.06e-07  6.08e-05  1.28e-05     8.1
   54    -3371.3868937266788635    -2.16e-08  4.44e-07  9.39e-05  1.13e-05     7.7
   55    -3371.3868937552842908    -2.86e-08  7.28e-07  1.43e-04  1.06e-05     8.2
   56    -3371.3868937807046677    -2.54e-08  6.59e-07  1.79e-04  1.00e-05     8.7
   57    -3371.3868938337382133    -5.30e-08  6.82e-07  1.84e-04  8.64e-06     8.6
   58    -3371.3868938837249516    -5.00e-08  3.08e-07  7.91e-05  7.01e-06     8.8

       ******************************************************************************
       ***                                                                        ***
       ***                               Auto-TRAH                                ***
       ***                               ---------                                ***
       *** the maximum gradient error decreased on average only by a factor   1.1 ***
       *** during the last  10 iterations                                         ***
       ***                                                                        ***
       ***               Leaving SCF to start the TRAH-SCF procedure              ***
       ***                                                                        ***
       ******************************************************************************

 --------------------------------------------------------------------------------------------
   Iter.        energy            ||Error||_2        Shift      TRadius  Mac/Mic        Rej.
 --------------------------------------------------------------------------------------------
    0      -3371.386893803614     3.303235e-05                     0.400 (TRAH MAcro)   No
    0     dE    -9.421947e-10     2.613096e-05    -9.4242e-10      0.000 (TRAH MIcro)
    0     dE    -1.876290e-09     2.161502e-05    -1.8763e-09      0.000 (TRAH MIcro)
    0     dE    -2.250628e-09     1.683549e-05    -2.2506e-09      0.000 (TRAH MIcro)
    0     dE    -2.563084e-09     1.500915e-05    -2.5631e-09      0.000 (TRAH MIcro)
    0     dE    -2.695741e-09     1.083062e-05    -2.6957e-09      0.000 (TRAH MIcro)
    0     dE    -2.782006e-09     5.357206e-06    -2.7820e-09      0.000 (TRAH MIcro)
    0     dE    -2.804620e-09     4.513178e-06    -2.8046e-09      0.000 (TRAH MIcro)
    0     dE    -2.830891e-09     5.562404e-06    -2.8309e-09      0.000 (TRAH MIcro)
    0     dE    -2.866440e-09     5.500029e-06    -2.8664e-09      0.000 (TRAH MIcro)
    0     dE    -2.895156e-09     4.173539e-06    -2.8952e-09      0.000 (TRAH MIcro)
    0     dE    -2.911237e-09     4.166026e-06    -2.9112e-09      0.000 (TRAH MIcro)
    0     dE    -2.928803e-09     4.386163e-06    -2.9288e-09      0.000 (TRAH MIcro)
    0     dE    -2.952753e-09     5.013432e-06    -2.9528e-09      0.000 (TRAH MIcro)
    0     dE    -2.977639e-09     4.787126e-06    -2.9776e-09      0.000 (TRAH MIcro)
    0     dE    -2.992541e-09     3.264213e-06    -2.9925e-09      0.000 (TRAH MIcro)
    0     dE    -3.002723e-09     2.691944e-06    -3.0027e-09      0.000 (TRAH MIcro)
    0     dE    -3.009001e-09     2.412121e-06    -3.0090e-09      0.000 (TRAH MIcro)
    0     dE    -3.014168e-09     1.658560e-06    -3.0142e-09      0.000 (TRAH MIcro)
    0     dE    -3.018755e-09     2.253249e-06    -3.0188e-09      0.000 (TRAH MIcro)
    0     dE    -3.024303e-09     1.820634e-06    -3.0243e-09      0.000 (TRAH MIcro)
    0     dE    -3.027881e-09     1.589915e-06    -3.0279e-09      0.000 (TRAH MIcro)
    0     dE    -3.031507e-09     1.784905e-06    -3.0315e-09      0.000 (TRAH MIcro)
    0     dE    -3.035022e-09     1.605383e-06    -3.0350e-09      0.000 (TRAH MIcro)
    1      -3371.386893807228     1.840654e-06                           (NR   MAcro)

               *****************************************************
               *                     SUCCESS                       *
               *           SCF CONVERGED AFTER  83 CYCLES          *
               *****************************************************

 done (   30.883 sec)
Old exchange energy                            :    -75.619486701 Eh
New exchange energy                            :    -75.619474971 Eh
Exchange energy change after final integration :      0.000011730 Eh
Total energy after final integration           :  -3371.386882077 Eh
             **** ENERGY FILE WAS UPDATED (GIQMUO-S6.en.tmp) ****

----------------
TOTAL SCF ENERGY
----------------

Total Energy       :      -3371.38688207674886 Eh          -91740.10104 eV

Components:
Nuclear Repulsion  :       4754.67938606819280 Eh          129381.40372 eV
Electronic Energy  :      -8126.06627987542106 Eh         -221121.50508 eV
One Electron Energy:     -14134.16309930304305 Eh         -384610.13113 eV
Two Electron Energy:       6008.09681942762199 Eh          163488.62606 eV

Virial components:
Potential Energy   :      -6737.25053397404736 Eh         -183329.90734 eV
Kinetic Energy     :       3365.86365189729895 Eh           91589.80630 eV
Virial Ratio       :          2.00164095481893

DFT components:
N(Alpha)           :      140.000008879826 electrons
N(Beta)            :      139.000008646252 electrons
N(Total)           :      279.000017526079 electrons
E(X)               :     -226.627724061730 Eh       
E(C)               :       -9.933117568827 Eh       
E(XC)              :     -236.560841630556 Eh       

---------------
SCF CONVERGENCE
---------------

  Last Energy change         ...   -3.6134e-09  Tolerance :   1.0000e-08
  Last MAX-Density change    ...    6.7683e-05  Tolerance :   1.0000e-07
  Last RMS-Density change    ...    2.9558e-07  Tolerance :   5.0000e-09
  Last DIIS Error            ...    1.6577e-03  Tolerance :   5.0000e-07
  Last Orbital Gradient      ...    1.8407e-06  Tolerance :   1.0000e-05
  Last Orbital Rotation      ...    3.7362e-04  Tolerance :   1.0000e-05


----------------------
UHF SPIN CONTAMINATION
----------------------

Warning: in a DFT calculation there is little theoretical justification to 
         calculate <S**2> as in Hartree-Fock theory. We will do it anyways
         but you should keep in mind that the values have only limited relevance

Expectation value of <S**2>     :     2.052608
Ideal value S*(S+1) for S=0.5   :     0.750000
Deviation                       :     1.302608

----------------
ORBITAL ENERGIES
----------------
                 SPIN UP ORBITALS
  NO   OCC          E(Eh)            E(eV) 
   0   1.0000    -235.761768     -6415.4039 
   1   1.0000     -27.419584      -746.1248 
   2   1.0000     -24.818792      -675.3537 
   3   1.0000     -24.818296      -675.3402 
   4   1.0000     -24.817559      -675.3201 
   5   1.0000     -24.815481      -675.2636 
   6   1.0000     -24.814522      -675.2375 
   7   1.0000     -24.813590      -675.2121 
   8   1.0000     -24.810196      -675.1198 
   9   1.0000     -24.807554      -675.0479 
  10   1.0000     -24.807490      -675.0461 
  11   1.0000     -24.800297      -674.8504 
  12   1.0000     -24.798568      -674.8033 
  13   1.0000     -24.798407      -674.7990 
  14   1.0000     -23.465838      -638.5379 
  15   1.0000     -23.462255      -638.4404 
  16   1.0000     -23.455851      -638.2662 
  17   1.0000     -19.267399      -524.2926 
  18   1.0000     -19.232703      -523.3485 
  19   1.0000     -19.230341      -523.2842 
  20   1.0000     -19.229367      -523.2577 
  21   1.0000     -19.228082      -523.2227 
  22   1.0000     -14.445821      -393.0908 
  23   1.0000     -14.417423      -392.3180 
  24   1.0000     -10.475006      -285.0394 
  25   1.0000     -10.468071      -284.8507 
  26   1.0000     -10.466235      -284.8007 
  27   1.0000     -10.459936      -284.6293 
  28   1.0000     -10.338002      -281.3113 
  29   1.0000     -10.333902      -281.1998 
  30   1.0000     -10.333432      -281.1870 
  31   1.0000     -10.331369      -281.1308 
  32   1.0000     -10.303519      -280.3730 
  33   1.0000     -10.289088      -279.9803 
  34   1.0000     -10.282756      -279.8080 
  35   1.0000     -10.249175      -278.8942 
  36   1.0000     -10.227103      -278.2936 
  37   1.0000     -10.216470      -278.0043 
  38   1.0000      -3.228072       -87.8403 
  39   1.0000      -2.082638       -56.6715 
  40   1.0000      -2.078427       -56.5569 
  41   1.0000      -2.064017       -56.1648 
  42   1.0000      -1.399724       -38.0884 
  43   1.0000      -1.397500       -38.0279 
  44   1.0000      -1.395097       -37.9625 
  45   1.0000      -1.383146       -37.6373 
  46   1.0000      -1.295630       -35.2559 
  47   1.0000      -1.293711       -35.2037 
  48   1.0000      -1.289537       -35.0901 
  49   1.0000      -1.285593       -34.9828 
  50   1.0000      -1.277704       -34.7681 
  51   1.0000      -1.276128       -34.7252 
  52   1.0000      -1.273575       -34.6557 
  53   1.0000      -1.272217       -34.6188 
  54   1.0000      -1.140058       -31.0225 
  55   1.0000      -1.108004       -30.1503 
  56   1.0000      -1.104982       -30.0681 
  57   1.0000      -1.093406       -29.7531 
  58   1.0000      -1.091100       -29.6903 
  59   1.0000      -1.061506       -28.8851 
  60   1.0000      -0.960829       -26.1455 
  61   1.0000      -0.874193       -23.7880 
  62   1.0000      -0.849568       -23.1179 
  63   1.0000      -0.848212       -23.0810 
  64   1.0000      -0.787105       -21.4182 
  65   1.0000      -0.785251       -21.3678 
  66   1.0000      -0.752154       -20.4671 
  67   1.0000      -0.750677       -20.4270 
  68   1.0000      -0.743903       -20.2426 
  69   1.0000      -0.736897       -20.0520 
  70   1.0000      -0.698582       -19.0094 
  71   1.0000      -0.698206       -18.9992 
  72   1.0000      -0.668616       -18.1940 
  73   1.0000      -0.666055       -18.1243 
  74   1.0000      -0.644267       -17.5314 
  75   1.0000      -0.642034       -17.4706 
  76   1.0000      -0.641738       -17.4626 
  77   1.0000      -0.638582       -17.3767 
  78   1.0000      -0.637417       -17.3450 
  79   1.0000      -0.637409       -17.3448 
  80   1.0000      -0.636685       -17.3251 
  81   1.0000      -0.635201       -17.2847 
  82   1.0000      -0.634742       -17.2722 
  83   1.0000      -0.632964       -17.2238 
  84   1.0000      -0.584079       -15.8936 
  85   1.0000      -0.578464       -15.7408 
  86   1.0000      -0.575778       -15.6677 
  87   1.0000      -0.575146       -15.6505 
  88   1.0000      -0.558006       -15.1841 
  89   1.0000      -0.556244       -15.1362 
  90   1.0000      -0.530320       -14.4307 
  91   1.0000      -0.525615       -14.3027 
  92   1.0000      -0.522609       -14.2209 
  93   1.0000      -0.513004       -13.9596 
  94   1.0000      -0.511343       -13.9143 
  95   1.0000      -0.511001       -13.9050 
  96   1.0000      -0.508977       -13.8500 
  97   1.0000      -0.507364       -13.8061 
  98   1.0000      -0.506417       -13.7803 
  99   1.0000      -0.504686       -13.7332 
 100   1.0000      -0.503550       -13.7023 
 101   1.0000      -0.500766       -13.6265 
[...]
 83:   1032.57   0.000002    0.01  0.000001  (-0.000409 -0.000642  0.000047)
 84:   1039.88   0.003227   16.31  0.000969  ( 0.030431 -0.005366 -0.003696)
 85:   1091.22   0.001045    5.28  0.000299  (-0.005401  0.016091  0.003292)
 86:   1106.03   0.000358    1.81  0.000101  ( 0.004507  0.008978  0.000293)
 87:   1137.05   0.019770   99.91  0.005426  (-0.000055  0.009680 -0.073023)
 88:   1142.93   0.002162   10.93  0.000590  (-0.022384 -0.009048 -0.002725)
 89:   1165.84   0.009608   48.55  0.002572  (-0.013261  0.048616  0.005686)
 90:   1169.50   0.041534  209.89  0.011083  (-0.027223  0.100805  0.013412)
 91:   1172.26   0.001587    8.02  0.000422  ( 0.017629  0.010508  0.001074)
 92:   1190.90   0.000347    1.75  0.000091  (-0.009492  0.000179  0.000847)
 93:   1193.99   0.019750   99.81  0.005162  ( 0.070254  0.013188 -0.007235)
 94:   1194.58   0.058090  293.56  0.015175  (-0.116087 -0.040665 -0.006711)
 95:   1197.61   0.101883  514.87  0.026548  (-0.153120 -0.055569  0.003787)
 96:   1223.94   0.000868    4.39  0.000221  (-0.006717  0.013209  0.001356)
 97:   1228.01   0.048700  246.11  0.012376  ( 0.044780 -0.101527 -0.007910)
 98:   1236.90   0.002365   11.95  0.000597  (-0.022902  0.008363 -0.001515)
 99:   1238.62   0.171389  866.13  0.043181  ( 0.009252 -0.020473  0.206581)
100:   1241.67   0.000833    4.21  0.000209  ( 0.008265  0.008757 -0.008021)
101:   1280.51   0.001738    8.78  0.000424  (-0.005855  0.018768  0.006089)
102:   1282.46   0.169420  856.18  0.041225  (-0.061400  0.191933  0.024841)
103:   1287.72   0.000006    0.03  0.000001  (-0.001138  0.000256  0.000137)
104:   1366.01   0.085121  430.16  0.019446  ( 0.011766 -0.014565  0.138185)
105:   1378.92   0.002881   14.56  0.000652  ( 0.023523  0.006087  0.007854)
106:   1392.05   0.001075    5.43  0.000241  ( 0.005718 -0.014295 -0.002005)
107:   1459.39   0.009894   50.00  0.002116  ( 0.018763  0.041943  0.002093)
108:   1508.96   0.004665   23.58  0.000965  (-0.030729  0.003111  0.003303)
109:   1539.68   0.001079    5.45  0.000219  (-0.004534  0.014072 -0.000308)
110:   1552.13   0.045575  230.32  0.009163  (-0.024960  0.091607  0.012175)
111:   1576.89   0.031307  158.21  0.006196  (-0.020994  0.075287  0.009312)
112:   1581.06   0.022440  113.40  0.004429  (-0.017764  0.063707  0.007417)
113:   1613.11   0.005901   29.82  0.001142  (-0.030310 -0.010870  0.010237)
114:   1626.62   0.017415   88.01  0.003341  (-0.027442 -0.005218  0.050603)
115:   1627.57   0.010850   54.83  0.002080  (-0.020384  0.040344 -0.006106)
116:   1645.12   0.011854   59.90  0.002249  (-0.012515  0.000484 -0.045735)
117:   1660.07   0.003511   17.74  0.000660  (-0.024754 -0.003097  0.006139)
118:   3182.02   0.001386    7.00  0.000136  (-0.010008 -0.005949  0.000587)
119:   3218.60   0.000092    0.47  0.000009  ( 0.001600 -0.002504 -0.000310)
120:   3219.75   0.000095    0.48  0.000009  ( 0.002957  0.000603 -0.000247)
121:   3235.77   0.000261    1.32  0.000025  ( 0.003922  0.003110 -0.000279)
122:   3274.80   0.000919    4.64  0.000088  ( 0.001415 -0.000806  0.009216)
123:   3276.68   0.000920    4.65  0.000088  ( 0.000614 -0.000915  0.009295)
124:   3810.37   0.006744   34.08  0.000552  ( 0.016072  0.007595 -0.015372)
125:   3910.65   0.015913   80.42  0.001270  ( 0.010633 -0.033676 -0.004760)

* The epsilon (eps) is given for a Dirac delta lineshape.
** The dipole moment derivative (T) already includes vibrational overlap.

The first frequency considered to be a vibration is 6
The total number of vibrations considered is 120


--------------------------
THERMOCHEMISTRY AT 298.15K
--------------------------

Temperature         ...   298.15 K
Pressure            ...     1.00 atm
Total Mass          ...   567.14 AMU
Quasi RRHO          ...     True
Cut-Off Frequency   ...     1.00 cm^-1

Throughout the following assumptions are being made:
  (1) The electronic state is orbitally nondegenerate
      but the spin degeneracy is treated
  (2) There are no thermally accessible electronically excited states
  (3) Hindered rotations indicated by low frequency modes are not
      treated as such but are treated as vibrations and this may
      cause some error
  (4) All equations used are the standard statistical mechanics
      equations for an ideal gas
  (5) All vibrations are strictly harmonic

freq.      17.79  E(vib)   ...       0.57 
freq.      19.40  E(vib)   ...       0.57 
freq.      20.81  E(vib)   ...       0.56 
freq.      22.25  E(vib)   ...       0.56 
freq.      25.67  E(vib)   ...       0.56 
freq.      26.97  E(vib)   ...       0.55 
freq.      28.41  E(vib)   ...       0.55 
freq.      32.70  E(vib)   ...       0.55 
freq.      45.80  E(vib)   ...       0.53 
freq.      54.70  E(vib)   ...       0.52 
freq.      79.63  E(vib)   ...       0.49 
freq.      83.41  E(vib)   ...       0.48 
freq.     101.05  E(vib)   ...       0.46 
freq.     107.03  E(vib)   ...       0.45 
freq.     108.70  E(vib)   ...       0.45 
freq.     114.73  E(vib)   ...       0.44 
freq.     123.17  E(vib)   ...       0.43 
freq.     155.36  E(vib)   ...       0.40 
freq.     157.69  E(vib)   ...       0.40 
freq.     163.34  E(vib)   ...       0.39 
freq.     174.41  E(vib)   ...       0.38 
freq.     180.38  E(vib)   ...       0.37 
freq.     187.64  E(vib)   ...       0.36 
freq.     199.27  E(vib)   ...       0.35 
freq.     212.51  E(vib)   ...       0.34 
freq.     253.91  E(vib)   ...       0.30 
freq.     254.94  E(vib)   ...       0.30 
freq.     255.36  E(vib)   ...       0.30 
freq.     257.61  E(vib)   ...       0.30 
freq.     264.90  E(vib)   ...       0.29 
freq.     289.61  E(vib)   ...       0.27 
freq.     306.85  E(vib)   ...       0.26 
freq.     311.46  E(vib)   ...       0.25 
freq.     323.34  E(vib)   ...       0.25 
freq.     331.52  E(vib)   ...       0.24 
freq.     333.40  E(vib)   ...       0.24 
freq.     350.34  E(vib)   ...       0.23 
freq.     356.00  E(vib)   ...       0.22 
freq.     382.72  E(vib)   ...       0.20 
freq.     385.14  E(vib)   ...       0.20 
freq.     404.90  E(vib)   ...       0.19 
freq.     422.20  E(vib)   ...       0.18 
freq.     447.62  E(vib)   ...       0.17 
freq.     471.82  E(vib)   ...       0.15 
freq.     502.11  E(vib)   ...       0.14 
freq.     509.24  E(vib)   ...       0.14 
freq.     515.31  E(vib)   ...       0.13 
freq.     518.93  E(vib)   ...       0.13 
freq.     521.73  E(vib)   ...       0.13 
freq.     535.01  E(vib)   ...       0.13 
freq.     537.19  E(vib)   ...       0.12 
freq.     542.20  E(vib)   ...       0.12 
freq.     596.02  E(vib)   ...       0.10 
freq.     596.39  E(vib)   ...       0.10 
freq.     604.40  E(vib)   ...       0.10 
freq.     605.37  E(vib)   ...       0.10 
freq.     617.83  E(vib)   ...       0.09 
freq.     642.93  E(vib)   ...       0.09 
freq.     686.21  E(vib)   ...       0.07 
freq.     695.39  E(vib)   ...       0.07 
freq.     698.61  E(vib)   ...       0.07 
freq.     730.61  E(vib)   ...       0.06 
freq.     741.73  E(vib)   ...       0.06 
freq.     745.74  E(vib)   ...       0.06 
freq.     757.91  E(vib)   ...       0.06 
freq.     758.28  E(vib)   ...       0.06 
freq.     785.34  E(vib)   ...       0.05 
freq.     788.66  E(vib)   ...       0.05 
freq.     835.35  E(vib)   ...       0.04 
freq.     837.11  E(vib)   ...       0.04 
freq.     837.91  E(vib)   ...       0.04 
freq.     840.20  E(vib)   ...       0.04 
freq.     841.03  E(vib)   ...       0.04 
freq.     972.77  E(vib)   ...       0.03 
freq.     975.01  E(vib)   ...       0.03 
freq.     991.86  E(vib)   ...       0.02 
freq.    1011.41  E(vib)   ...       0.02 
freq.    1032.57  E(vib)   ...       0.02 
freq.    1039.88  E(vib)   ...       0.02 
freq.    1091.22  E(vib)   ...       0.02 
freq.    1106.03  E(vib)   ...       0.02 
freq.    1137.05  E(vib)   ...       0.01 
freq.    1142.93  E(vib)   ...       0.01 
freq.    1165.84  E(vib)   ...       0.01 
freq.    1169.50  E(vib)   ...       0.01 
freq.    1172.26  E(vib)   ...       0.01 
freq.    1190.90  E(vib)   ...       0.01 
freq.    1193.99  E(vib)   ...       0.01 
freq.    1194.58  E(vib)   ...       0.01 
freq.    1197.61  E(vib)   ...       0.01 
freq.    1223.94  E(vib)   ...       0.01 
freq.    1228.01  E(vib)   ...       0.01 
freq.    1236.90  E(vib)   ...       0.01 
freq.    1238.62  E(vib)   ...       0.01 
freq.    1241.67  E(vib)   ...       0.01 
freq.    1280.51  E(vib)   ...       0.01 
freq.    1282.46  E(vib)   ...       0.01 
freq.    1287.72  E(vib)   ...       0.01 
freq.    1366.01  E(vib)   ...       0.01 
freq.    1378.92  E(vib)   ...       0.01 
freq.    1392.05  E(vib)   ...       0.00 
freq.    1459.39  E(vib)   ...       0.00 
freq.    1508.96  E(vib)   ...       0.00 
freq.    1539.68  E(vib)   ...       0.00 
freq.    1552.13  E(vib)   ...       0.00 
freq.    1576.89  E(vib)   ...       0.00 
freq.    1581.06  E(vib)   ...       0.00 
freq.    1613.11  E(vib)   ...       0.00 
freq.    1626.62  E(vib)   ...       0.00 
freq.    1627.57  E(vib)   ...       0.00 
freq.    1645.12  E(vib)   ...       0.00 
freq.    1660.07  E(vib)   ...       0.00 
freq.    3182.02  E(vib)   ...       0.00 
freq.    3218.60  E(vib)   ...       0.00 
freq.    3219.75  E(vib)   ...       0.00 
freq.    3235.77  E(vib)   ...       0.00 
freq.    3274.80  E(vib)   ...       0.00 
freq.    3276.68  E(vib)   ...       0.00 
freq.    3810.37  E(vib)   ...       0.00 
freq.    3910.65  E(vib)   ...       0.00 

------------
INNER ENERGY
------------

The inner energy is: U= E(el) + E(ZPE) + E(vib) + E(rot) + E(trans)
    E(el)   - is the total energy from the electronic structure calculation
              = E(kin-el) + E(nuc-el) + E(el-el) + E(nuc-nuc)
    E(ZPE)  - the the zero temperature vibrational energy from the frequency calculation
    E(vib)  - the the finite temperature correction to E(ZPE) due to population
              of excited vibrational states
    E(rot)  - is the rotational thermal energy
    E(trans)- is the translational thermal energy

Summary of contributions to the inner energy U:
Electronic energy                ...  -3371.63741322 Eh
Zero point energy                ...      0.24087670 Eh     151.15 kcal/mol
Thermal vibrational correction   ...      0.03044957 Eh      19.11 kcal/mol
Thermal rotational correction    ...      0.00141627 Eh       0.89 kcal/mol
Thermal translational correction ...      0.00141627 Eh       0.89 kcal/mol
-----------------------------------------------------------------------
Total thermal energy                  -3371.36325441 Eh


Summary of corrections to the electronic energy:
(perhaps to be used in another calculation)
Total thermal correction                  0.03328211 Eh      20.88 kcal/mol
Non-thermal (ZPE) correction              0.24087670 Eh     151.15 kcal/mol
-----------------------------------------------------------------------
Total correction                          0.27415881 Eh     172.04 kcal/mol


--------
ENTHALPY
--------

The enthalpy is H = U + kB*T
                kB is Boltzmann's constant
Total thermal energy              ...  -3371.36325441 Eh 
Thermal Enthalpy correction       ...      0.00094421 Eh       0.59 kcal/mol
-----------------------------------------------------------------------
Total Enthalpy                    ...  -3371.36231020 Eh


Note: Only C1 symmetry has been detected, increase convergence thresholds 
      if your molecule has a higher symmetry. Symmetry factor of 1.0 is   
      used for the rotational entropy correction. 
 

Note: Rotational entropy computed according to Herzberg 
Infrared and Raman Spectra, Chapter V,1, Van Nostrand Reinhold, 1945 
Point Group:  C1, Symmetry Number:   1  
Rotational constants in cm-1:     0.004453     0.003011     0.002408 

Vibrational entropy computed according to the QRRHO of S. Grimme
Chem.Eur.J. 2012 18 9955 using a reference frequency of 100.0 cm-1


-------
ENTROPY
-------

The entropy contributions are T*S = T*(S(el)+S(vib)+S(rot)+S(trans))
     S(el)   - electronic entropy
     S(vib)  - vibrational entropy
     S(rot)  - rotational entropy
     S(trans)- translational entropy
The entropies will be listed as multiplied by the temperature to get
units of energy

Electronic entropy                ...      0.00065446 Eh      0.41 kcal/mol
Vibrational entropy               ...      0.05646907 Eh     35.43 kcal/mol
Rotational entropy                ...      0.01765375 Eh     11.08 kcal/mol
Translational entropy             ...      0.02132910 Eh     13.38 kcal/mol
-----------------------------------------------------------------------
Final entropy term                ...      0.09610637 Eh     60.31 kcal/mol

In case the symmetry of your molecule has not been determined correctly
or in case you have a reason to use a different symmetry number we print 
out the resulting rotational entropy values for sn=1,12:

 non-linear molecules -----------------------------------
|  sn= 1 | S(rot)=       0.01765375 Eh     11.08 kcal/mol|
|  sn= 2 | S(rot)=       0.01699930 Eh     10.67 kcal/mol|
|  sn= 3 | S(rot)=       0.01661646 Eh     10.43 kcal/mol|
|  sn= 4 | S(rot)=       0.01634484 Eh     10.26 kcal/mol|
|  sn= 5 | S(rot)=       0.01613415 Eh     10.12 kcal/mol|
|  sn= 6 | S(rot)=       0.01596201 Eh     10.02 kcal/mol|
|  sn= 7 | S(rot)=       0.01581646 Eh      9.92 kcal/mol|
|  sn= 8 | S(rot)=       0.01569038 Eh      9.85 kcal/mol|
|  sn= 9 | S(rot)=       0.01557917 Eh      9.78 kcal/mol|
|  sn=10 | S(rot)=       0.01547969 Eh      9.71 kcal/mol|
|  sn=11 | S(rot)=       0.01538970 Eh      9.66 kcal/mol|
|  sn=12 | S(rot)=       0.01530755 Eh      9.61 kcal/mol|
 linear molecules ---------------------------------------
|  Dinfh | S(rot)=       0.01101828 Eh      6.91 kcal/mol|
|  Cinfv | S(rot)=       0.01167273 Eh      7.32 kcal/mol|
 --------------------------------------------------------


-------------------
GIBBS FREE ENERGY
-------------------

The Gibbs free energy is G = H - T*S

Total enthalpy                    ...  -3371.36231020 Eh 
Total entropy correction          ...     -0.09610637 Eh    -60.31 kcal/mol
-----------------------------------------------------------------------
Final Gibbs free energy         ...  -3371.45841658 Eh

For completeness - the Gibbs free energy minus the electronic energy
G-E(el)                           ...      0.17899664 Eh    112.32 kcal/mol


Maximum memory used throughout the entire PROP-calculation: 1320.2 MB

--------------------------------
SUGGESTED CITATIONS FOR THIS RUN
--------------------------------

Below you find a list of papers that are relevant to this ORCA run
We neither can nor want to force you to cite these papers, but we appreciate if you do
You receive ORCA, which is the product of decades of hard work by many enthusiastic individuals, for free
The only thing we kindly ask in return is that you cite our papers,
We deeply appreciate it, if you show your appreciation for ORCA by not just citing the generic ORCA reference.

Please note that relegating all ORCA citations to the supporting information does *not* help us.
SI sections are not indexed - citations you put there will not count into any citation statistics
But we need these citations in order to attract the funding resources that allow us to do what we are doing

Therefore, if you are a happy ORCA user, please consider citing a few of the papers listed below in the main body of your paper

In addition to the list printed below, the program has created the file GIQMUO-S6.bibtex that contains the list in bibtex format
You can import this file easily into all common literature databanks and citation aid programs


List of essential papers. We consider these as the minimum necessary citations

  1. Neese,F.
     Software update: the ORCA program system, version 5.0
     WIRES Comput. Molec. Sci., 2022 12(1)e1606
     doi.org/10.1002/wcms.1606

List of papers to cite with high priority. The work reported in these papers was absolutely
necessary for this run to complete.
Our perspective: the developers of density functionals and basis sets usually get cited in chemistry papers
Good! But without the algorithms to do something with them, the functionals or basis sets would not do anything.
Hence, in our opinion, the algorithm design and method developments papers are equally worthy of getting cited

  1. Neese,F.
     An improvement of the resolution of the identity approximation for the formation of the Coulomb matrix
     J. Comp. Chem., 2003 24(14)1740-1747
     doi.org/10.1002/jcc.10318
  2. Neese,F.; Wennmohs,F.; Hansen,A.; Becker,U.
     Efficient, approximate and parallel Hartree-Fock and hybrid DFT calculations. A 'chain-of-spheres' algorithm for the Hartree-Fock exchange
     Chem. Phys., 2009 356(1-3)98-109
     doi.org/10.1016/j.chemphys.2008.10.036
  3. Bykov,D.; Petrenko,T.; Izsak,R.; Kossmann,S.; Becker,U.; Valeev,E.; Neese,F.
     Efficient implementation of the analytic second derivatives of Hartree-Fock and hybrid DFT energies: a detailed analysis of different approximations
     Molec. Phys., 2015 113 1961-1977
     doi.org/10.1080/00268976.2015.1025114
  4. Helmich-Paris,B.; de Souza,B.; Neese,F.; Izsák,R.
     An improved chain of spheres for exchange algorithm
     J. Chem. Phys., 2021 155 104109
     doi.org/doi: 10.1063/5.0058766.
  5. Helmich-Paris,B.
     A trust-region augmented Hessian implementation for restricted and unrestricted Hartree–Fock and Kohn–Sham methods
     J. Chem. Phys., 2021 154 164104
     doi.org/10.1063/5.0040798
  6. Neese,F.
     The SHARK Integral Generation and Digestion System
     J. Comp. Chem., 2022  1-16
     doi.org/10.1002/jcc.26942

List of suggested additional citations. These are papers that are important in the 'surrounding' of 
of this run, or papers that preceded the highly important papers. If you like your results we are grateful for a citation.

  1. Izsak,R.; Neese,F.
     An overlap fitted chain of spheres exchange method
     J. Chem. Phys., 2011 135 144105
     doi.org/10.1063/1.3646921
  2. Izsak,R.; Hansen,A.; Neese,F.
     The resolution of identity and chain of spheres approximations for the LPNO-CCSD singles Fock term
     Molec. Phys., 2012 110 2413-2417
     doi.org/10.1080/00268976.2012.687466
  3. Neese,F.
     The ORCA program system
     WIRES Comput. Molec. Sci., 2012 2(1)73-78
     doi.org/10.1002/wcms.81
  4. Izsak,R.; Neese,F.; Klopper,W.
     Robust fitting techniques in the chain of spheres approximation to the Fock exchange: The role of the complementary space
     J. Chem. Phys., 2013 139 
     doi.org/10.1063/1.4819264
  5. Neese,F.
     Software update: the ORCA program system, version 4.0
     WIRES Comput. Molec. Sci., 2018 8(1)1-6
     doi.org/10.1002/wcms.1327
  6. Neese,F.; Wennmohs,F.; Becker,U.; Riplinger,C.
     The ORCA quantum chemistry program package
     J. Chem. Phys., 2020 152 Art. No. L224108
     doi.org/10.1063/5.0004608

List of optional additional citations

  1. Neese,F.
     Approximate second-order SCF convergence for spin unrestricted wavefunctions
     Chem. Phys. Lett., 2000 325(1-3)93-98
     doi.org/10.1016/s0009-2614(00)00662-x

Timings for individual modules:

Sum of individual times          ...    28002.529 sec (= 466.709 min)
Startup calculation              ...      278.264 sec (=   4.638 min)   1.0 %
SCF iterations                   ...     9603.084 sec (= 160.051 min)  34.3 %
Property integrals               ...     2836.209 sec (=  47.270 min)  10.1 %
SCF Response                     ...    13275.098 sec (= 221.252 min)  47.4 %
Property calculations            ...      867.901 sec (=  14.465 min)   3.1 %
SCF Gradient evaluation          ...     1141.464 sec (=  19.024 min)   4.1 %
Geometry relaxation              ...        0.510 sec (=   0.008 min)   0.0 %
                             ****ORCA TERMINATED NORMALLY****
TOTAL RUN TIME: 0 days 7 hours 47 minutes 19 seconds 45 msec
