
                                 *****************
                                 * O   R   C   A *
                                 *****************

                                            #,                                       
                                            ###                                      
                                            ####                                     
                                            #####                                    
                                            ######                                   
                                           ########,                                 
                                     ,,################,,,,,                         
                               ,,#################################,,                 
                          ,,##########################################,,             
                       ,#########################################, ''#####,          
                    ,#############################################,,   '####,        
                  ,##################################################,,,,####,       
                ,###########''''           ''''###############################       
              ,#####''   ,,,,##########,,,,          '''####'''          '####       
            ,##' ,,,,###########################,,,                        '##       
           ' ,,###''''                  '''############,,,                           
         ,,##''                                '''############,,,,        ,,,,,,###''
      ,#''                                            '''#######################'''  
     '                                                          ''''####''''         
             ,#######,   #######,   ,#######,      ##                                
            ,#'     '#,  ##    ##  ,#'     '#,    #''#        ,####,   ,####,        
            ##       ##  ##   ,#'  ##            #'  '#       #'       #'  '#        
            ##       ##  #######   ##           ,######,      #####,   #    #        
            '#,     ,#'  ##    ##  '#,     ,#' ,#      #,     #,   #   #,  ,#        
             '#######'   ##     ##  '#######'  #'      '#     '####' # '####'        



                #########################################################
                #                        -***-                          #
                #          Department of theory and spectroscopy        #
                #                                                       #
                #                      Frank Neese                      #
                #                                                       #
                #     Directorship, Architecture, Infrastructure        #
                #                    SHARK, DRIVERS                     #
                #        Core code/Algorithms in most modules           #
                #                                                       #
                #        Max Planck Institute fuer Kohlenforschung      #
                #                Kaiser Wilhelm Platz 1                 #
                #                 D-45470 Muelheim/Ruhr                 #
                #                      Germany                          #
                #                                                       #
                #                  All rights reserved                  #
                #                        -***-                          #
                #########################################################


                         Program Version 6.0.1  -  RELEASE   -


 With contributions from (in alphabetic order):
[Max-Planck-Institut fuer Kohlenforschung]                               
  Daniel Aravena         : Magnetic Suceptibility                        
  Michael Atanasov       : Ab Initio Ligand Field Theory (pilot matlab implementation)
  Alexander A. Auer      : GIAO ZORA, VPT2 properties, NMR spectrum      
  Ute Becker             : All parallelization in ORCA, NUMFREQ, NUMCALC 
  Giovanni Bistoni       : ED, misc. LED, open-shell LED, HFLD           
  Martin Brehm           : Molecular dynamics                            
  Dmytro Bykov           : pre 5.0 version of the SCF Hessian            
  Marcos Casanova-Páez   : Triplet and SCS-CIS(D). UHF-(DLPNO)-IP/EA/STEOM-CCSD. UHF-CVS-IP/STEOM-CCSD   
  Vijay G. Chilkuri      : MRCI spin determinant printing, contributions to CSF-ICE 
  Pauline Colinet        : FMM embedding                                 
  Dipayan Datta          : RHF DLPNO-CCSD density                        
  Achintya Kumar Dutta   : EOM-CC, STEOM-CC                              
  Nicolas Foglia         : Exact transition moments, OPA infrastructure, MCD improvements    
  Dmitry Ganyushin       : Spin-Orbit,Spin-Spin,Magnetic field MRCI      
  Miquel Garcia-Rates    : C-PCM and meta-GGA Hessian, CCSD/C-PCM, Gaussian charge scheme 
  Tiago L. C. Gouveia    : GS-ROHF, GS-ROCIS                             
  Yang Guo               : DLPNO-NEVPT2, F12-NEVPT2, CIM, IAO-localization        
  Andreas Hansen         : Spin unrestricted coupled pair/coupled cluster methods 
  Ingolf Harden          : AUTO-CI MPn and infrastructure                
  Benjamin Helmich-Paris : MC-RPA, TRAH-(SCF,CASSCF), AVAS, COSX integrals, SCF dyn. polar. 
  Lee Huntington         : MR-EOM, pCC                                   
  Robert Izsak           : Overlap fitted RIJCOSX, COSX-SCS-MP3, EOM     
  Riya Kayal             : Wick's Theorem for AUTO-CI, AUTO-CI UHF-CCSDT 
  Emily Kempfer          : AUTO-CI, RHF CISDT and CCSDT                  
  Christian Kollmar      : KDIIS, OOCD, Brueckner-CCSD(T), CCSD density, CASPT2, CASPT2-K, improved NEVPT2 
  Axel Koslowski         : Symmetry handling                             
  Simone Kossmann        : meta-GGA functionals, TD-DFT gradient, OOMP2, (MP2 Hessian; deprecated post 5.0) 
  Lucas Lang             : DCDCAS                                        
  Marvin Lechner         : AUTO-CI (C++ implementation), FIC-MRCC        
  Spencer Leger          : CASSCF response                               
  Dagmar Lenk            : GEPOL surface, SMD, ORCA-2-JSON               
  Dimitrios Liakos       : Extrapolation schemes; Compound Job, initial MDCI parallelization 
  Dimitrios Manganas     : Further ROCIS development; embedding schemes. LFT, Crystal Embedding 
  Dimitrios Pantazis     : SARC Basis sets                               
  Anastasios Papadopoulos: AUTO-CI, single reference methods and gradients 
  Taras Petrenko         : pre 6.0 DFT Hessian and TD-DFT gradient, (ASA, deprecated), ECA, 1-Electron XAS/XES, NRVS 
  Peter Pinski           : DLPNO-MP2, DLPNO-MP2 Gradient                 
  Christoph Reimann      : Effective Core Potentials                     
  Marius Retegan         : Local ZFS, SOC                                
  Christoph Riplinger    : Optimizer, TS searches, QM/MM, DLPNO-CCSD(T), (RO)-DLPNO pert. Triples 
  Michael Roemelt        : Original ROCIS implementation                 
  Masaaki Saitow         : Open-shell DLPNO-CCSD energy and density      
  Barbara Sandhoefer     : DKH picture change effects                    
  Kantharuban Sivalingam : CASSCF convergence/infrastructure, NEVPT2 and variants, FIC-MRCI 
  Bernardo de Souza      : ESD, SOC TD-DFT                               
  Georgi L. Stoychev     : AutoAux, RI-MP2 NMR, DLPNO-MP2 response, X2C  
  Van Anh Tran           : RI-MP2 g-tensors                              
  Willem Van den Heuvel  : Paramagnetic NMR                              
  Zikuan Wang            : NOTCH, Electric field optimization            
  Frank Wennmohs         : Technical directorship and infrastructure     
  Hang Xu                : AUTO-CI-Response properties                   
                                                                         
[FACCTs GmbH]                                                            
  Markus Bursch, Miquel Garcia-Rates, Christoph Riplinger, Bernardo de Souza, Georgi L. Stoychev 
                                                                 
  APM, Basis sets (HGBS, AHGBS, def-TZVP (Ac-Lr), def2-XVPD (La-Lu)), CI-OPT, improved COSX, DLPNO-Multilevel,           
  DOCKER, DRACO, updates on ESD, GOAT, IRC, LR-CPCM, MBIS, meta-GGA TD-DFT gradient, ML-optimized integration grids, 
  MM, NACMEs, nearIR, NEB, NEB-TS, NL-DFT gradient (VV10), 2- and 3-layer-ONIOM, interface openCOSMO-RS, QMMM,   
  Crystal-QMMM, SF, symmetry and pop. for TD-DFT, r2SCAN hybrids, SOLVATOR                                   
                                                                         
[Other institutions]                                                     
  V. Asgeirsson          : NEB                                           
  Christoph Bannwarth    : sTDA-DFT, sTD-DFT, PBEh-3c, B97-3c, D3        
  Sebastian Ehlert       : rSCAN, r2SCAN, r2SCAN-3c, D4, dhf basis sets  
  Marvin Friede          : D4 for Fr, Ra, Ac-Lr                          
  Lars Goerigk           : TD-DFT with DH, B97 family of functionals     
  Stefan Grimme          : VdW corrections, initial TS optimization, DFT functionals, gCP, sTDA/sTD-DF 
  Waldemar Hujo          : DFT-NL                                        
  H. Jonsson             : NEB                                           
  Holger Kruse           : gCP                                           
  Marcel Mueller         : wB97X-3c, vDZP basis set                      
  Hagen Neugebauer       : wr2SCAN                                       
  Tobias Risthaus        : range-separated hybrid DFT                    
  Lukas Wittmann         : regularized MP2, r2SCAN double-hybrids, wr2SCAN        
                                                                         
We gratefully acknowledge several colleagues who have allowed us to      
interface, adapt or use parts of their codes:                            
  Ed Valeev, F. Pavosevic, A. Kumar             : LibInt (2-el integral package), F12 methods 
  Garnet Chan, S. Sharma, J. Yang, R. Olivares  : DMRG                   
  Ulf Ekstrom                                   : XCFun DFT Library      
  Mihaly Kallay                                 : mrcc  (arbitrary order and MRCC methods)
  Frank Weinhold                                : gennbo (NPA and NBO analysis)           
  Simon Mueller                                 : openCOSMO-RS                            
  Christopher J. Cramer and Donald G. Truhlar   : smd solvation model                     
  S Lehtola, MJT Oliveira, MAL Marques          : LibXC Library                           
  Liviu Ungur et al                             : ANISO software                          


 Your calculation uses the libint2 library for the computation of 2-el integrals
 For citations please refer to: http://libint.valeyev.net

 Your ORCA version has been built with support for libXC version: 6.2.2
 For citations please refer to: https://libxc.gitlab.io

 This ORCA versions uses:
   CBLAS   interface :  Fast vector & matrix operations
   LAPACKE interface :  Fast linear algebra routines
   SCALAPACK package :  Parallel linear algebra routines
   Shared memory     :  Shared parallel matrices
   BLAS/LAPACK       :  OpenBLAS 0.3.27  USE64BITINT DYNAMIC_ARCH NO_AFFINITY Cooperlake SINGLE_THREADED
        Core in use  :  Cooperlake
   Copyright (c) 2011-2014, The OpenBLAS Project


NOTE: MaxCore=3600 MB was set to SCF,MP2,MDCI,CIPSI,MRCI and CIS
      => If you want to overwrite this, your respective input block should be placed after the MaxCore statement
Warning: RI is on but no J-basis has been assigned. Assigning Def2/J (nothing to worry about!)
================================================================================

----- Orbital basis set information -----
Your calculation utilizes the basis: def2-TZVP
   F. Weigend and R. Ahlrichs, Phys. Chem. Chem. Phys. 7, 3297 (2005).

----- AuxJ basis set information -----
Your calculation utilizes the auxiliary basis: def2/J
   F. Weigend, Phys. Chem. Chem. Phys. 8, 1057 (2006).

================================================================================
                                        WARNINGS
                       Please study these warnings very carefully!
================================================================================


WARNING: your system is open-shell and RHF/RKS was chosen
  ===> : WILL SWITCH to UHF/UKS


WARNING: Geometry Optimization
  ===> : Switching off AutoStart
         For restart on a previous wavefunction, please use MOREAD

================================================================================
                                       INPUT FILE
================================================================================
NAME = KEYPIT-S6.inp
|  1> ! PBE0 def2-TZVP  Opt Freq DEFGRID3
|  2> 
|  3> %maxcore 3600
|  4> 
|  5> %pal
|  6>     nprocs 16
|  7> end
|  8> 
|  9> *xyz 0 2
| 10> Mn 2.3535 1.3083 2.1091
| 11> O 4.4421 1.2797 1.4944
| 12> O 0.2547 1.4241 2.6916
| 13> O 1.7836 0.7589 -0.0592
| 14> O 2.2036 3.2801 1.0705
| 15> O 1.8442 5.363 -1.0243
| 16> O 0.9817 3.9689 -3.4684
| 17> O 0.9512 1.095 -2.9225
| 18> N 2.426 -0.8187 2.5874
| 19> N 2.187 -2.9777 2.3908
| 20> N 2.963 2.1747 4.0154
| 21> N 2.9592 2.9374 6.0462
| 22> C 1.6535 1.8252 -0.7164
| 23> C 1.892 3.1191 -0.1516
| 24> C 1.7053 4.1289 -1.1652
| 25> C 1.2793 3.442 -2.4014
| 26> C 1.2627 1.9855 -2.1137
| 27> C 2.0343 -1.7874 1.7963
| 28> C 2.6782 -2.7486 3.6105
| 29> C 2.8265 -1.4259 3.7348
| 30> C 2.2254 2.5826 4.9935
| 31> C 4.1982 2.8186 5.7443
| 32> C 4.2283 2.3036 4.5069
| 33> H 4.8665 1.9776 1.3381
| 34> H 4.719 0.7435 0.9118
| 35> H -0.1912 0.7158 2.7117
| 36> H -0.1483 1.9502 2.3446
| 37> H 1.9452 -3.7068 1.9657
| 38> H 2.6323 3.2441 6.7496
| 39> H 1.6409 -1.7554 0.7934
| 40> H 2.8571 -3.3218 4.1919
| 41> H 3.146 -0.8839 4.4169
| 42> H 1.228 2.3494 4.9853
| 43> H 5.0355 3.1912 6.3944
| 44> H 4.8389 2.4739 3.7774
| 45> *
| 46> 
| 47>                          ****END OF INPUT****
================================================================================

                       *****************************
                       * Geometry Optimization Run *
                       *****************************

Geometry optimization settings:
Update method            Update   .... BFGS
Choice of coordinates    CoordSys .... (2022) Redundant Internals
Initial Hessian          InHess   .... Almloef's Model
Max. no of cycles        MaxIter  .... 105

Convergence Tolerances:
Energy Change            TolE     ....  5.0000e-06 Eh
Max. Gradient            TolMAXG  ....  3.0000e-04 Eh/bohr
RMS Gradient             TolRMSG  ....  1.0000e-04 Eh/bohr
Max. Displacement        TolMAXD  ....  4.0000e-03 bohr
RMS Displacement         TolRMSD  ....  2.0000e-03 bohr
Strict Convergence                .... False

------------------------------------------------------------------------------
                        ORCA OPTIMIZATION COORDINATE SETUP
------------------------------------------------------------------------------

The optimization will be done in redundant internal coordinates (2022)
Making redundant internal coordinates   ...  (2022 redundants) done
Evaluating the initial hessian          ...  (Almloef) done
Evaluating the coordinates              ...  done
Calculating the B-matrix                .... done
Calculating the G-matrix                .... done
Diagonalizing the G-matrix              .... done
Small eigenvalue found = 1.084e-02
Small eigenvalue found = 1.868e-02
Small eigenvalue found = 2.235e-02
The first mode is                       ....  114
The number of degrees of freedom        ....   99

    -----------------------------------------------------------------
                    Redundant Internal Coordinates


    -----------------------------------------------------------------
         Definition                    Initial Value    Approx d2E/dq
    -----------------------------------------------------------------
      1. B(O   1,Mn  0)                  2.1774         0.313912   
      2. B(O   2,Mn  0)                  2.1812         0.309510   
      3. B(O   3,Mn  0)                  2.3083         0.194064   
      4. B(O   4,Mn  0)                  2.2336         0.255284   
      5. B(N   8,Mn  0)                  2.1813         0.309386   
      6. B(N  10,Mn  0)                  2.1809         0.309917   
      7. B(C  12,O   3)                  1.2593         0.904484   
      8. B(C  13,C  12)                  1.4318         0.535853   
      9. B(C  13,O   4)                  1.2714         0.865048   
     10. B(C  14,C  13)                  1.4429         0.514461   
     11. B(C  14,O   5)                  1.2499         0.936398   
     12. B(C  15,C  14)                  1.4770         0.453892   
     13. B(C  15,O   6)                  1.2267         1.019729   
     14. B(C  16,C  12)                  1.4597         0.483568   
     15. B(C  16,O   7)                  1.2427         0.961529   
     16. B(C  16,C  15)                  1.4847         0.441158   
     17. B(C  17,N   9)                  1.3392         0.674312   
     18. B(C  17,N   8)                  1.3106         0.749149   
     19. B(C  18,N   9)                  1.3347         0.685643   
     20. B(C  19,C  18)                  1.3368         0.759712   
     21. B(C  19,N   8)                  1.3585         0.628167   
     22. B(C  20,N  11)                  1.3314         0.694112   
     23. B(C  20,N  10)                  1.2912         0.804554   
     24. B(C  21,N  11)                  1.2808         0.835874   
     25. B(C  22,C  21)                  1.3406         0.749039   
     26. B(C  22,N  10)                  1.3635         0.616782   
     27. B(H  23,O   1)                  0.8316         0.833243   
     28. B(H  24,O   1)                  0.8388         0.811546   
     29. B(H  25,O   2)                  0.8372         0.816340   
     30. B(H  26,O   2)                  0.7481         1.132655   
     31. B(H  27,N   9)                  0.8779         0.702913   
     32. B(H  28,N  11)                  0.8341         0.825760   
     33. B(H  29,C  17)                  1.0778         0.376643   
     34. B(H  30,C  18)                  0.8358         0.916129   
     35. B(H  31,C  19)                  0.9280         0.653058   
     36. B(H  32,C  20)                  1.0243         0.458345   
     37. B(H  33,C  21)                  1.1236         0.318257   
     38. B(H  34,C  22)                  0.9664         0.566965   
     39. A(O   4,Mn  0,N  10)           94.2722         0.407089   
     40. A(O   3,Mn  0,N  10)          169.9507         0.387949   
     41. A(O   2,Mn  0,N  10)           90.8247         0.421263   
     42. A(O   1,Mn  0,O   4)           86.8299         0.408012   
     43. A(O   4,Mn  0,N   8)          164.7915         0.406965   
     44. A(O   2,Mn  0,O   3)           91.4858         0.387860   
     45. A(O   3,Mn  0,O   4)           75.9221         0.375111   
     46. A(O   2,Mn  0,O   4)           90.7296         0.406994   
     47. A(O   3,Mn  0,N   8)           88.9740         0.387832   
     48. A(O   1,Mn  0,N   8)           90.9863         0.422197   
     49. A(O   1,Mn  0,O   3)           88.1954         0.388816   
     50. A(O   2,Mn  0,N   8)           91.4435         0.421134   
     51. A(O   1,Mn  0,N  10)           89.0779         0.422327   
     52. A(N   8,Mn  0,N  10)          100.7444         0.421233   
     53. A(Mn  0,O   1,H  23)          122.1105         0.399415   
     54. A(Mn  0,O   1,H  24)          121.4081         0.397567   
     55. A(H  23,O   1,H  24)          103.7358         0.375525   
     56. A(Mn  0,O   2,H  26)          115.5838         0.420689   
     57. A(H  25,O   2,H  26)          108.6149         0.396552   
     58. A(Mn  0,O   2,H  25)          118.2927         0.396992   
     59. A(Mn  0,O   3,C  12)          108.3126         0.418060   
     60. A(Mn  0,O   4,C  13)          110.5853         0.435613   
     61. A(C  17,N   8,C  19)          105.5192         0.444313   
     62. A(Mn  0,N   8,C  19)          129.1101         0.425733   
     63. A(Mn  0,N   8,C  17)          125.3406         0.439428   
     64. A(C  17,N   9,H  27)          119.4569         0.395744   
     65. A(C  18,N   9,H  27)          133.3455         0.396903   
     66. A(C  17,N   9,C  18)          107.1613         0.442893   
     67. A(Mn  0,N  10,C  22)          127.7335         0.424472   
     68. A(C  20,N  10,C  22)          103.1316         0.448606   
     69. A(Mn  0,N  10,C  20)          128.9037         0.445272   
     70. A(C  21,N  11,H  28)          127.7368         0.422981   
     71. A(C  20,N  11,H  28)          123.2836         0.409223   
     72. A(C  20,N  11,C  21)          108.7893         0.461556   
     73. A(C  13,C  12,C  16)          108.8414         0.404599   
     74. A(O   3,C  12,C  16)          128.3302         0.441376   
     75. A(O   3,C  12,C  13)          122.8277         0.449660   
     76. A(C  12,C  13,C  14)          109.4984         0.409053   
     77. A(O   4,C  13,C  14)          128.1929         0.442762   
     78. A(O   4,C  13,C  12)          122.3044         0.446039   
     79. A(C  13,C  14,C  15)          107.4456         0.397251   
     80. A(O   5,C  14,C  15)          125.8462         0.439097   
     81. A(O   5,C  14,C  13)          126.6873         0.449165   
     82. A(C  14,C  15,C  16)          107.2935         0.386711   
     83. A(O   6,C  15,C  14)          126.7444         0.445918   
     84. A(O   6,C  15,C  16)          125.9595         0.443627   
     85. A(C  12,C  16,C  15)          106.8708         0.391010   
     86. A(O   7,C  16,C  15)          125.4272         0.438941   
     87. A(O   7,C  16,C  12)          127.6936         0.446287   
     88. A(N   8,C  17,H  29)          130.4537         0.364982   
     89. A(N   9,C  17,H  29)          118.7558         0.358485   
     90. A(N   8,C  17,N   9)          110.7874         0.450060   
     91. A(C  19,C  18,H  30)          126.1675         0.430364   
     92. A(N   9,C  18,H  30)          126.6359         0.419785   
     93. A(N   9,C  18,C  19)          107.1960         0.455591   
     94. A(C  18,C  19,H  31)          133.1941         0.405188   
     95. A(N   8,C  19,H  31)          117.4687         0.389377   
     96. A(N   8,C  19,C  18)          109.3298         0.448398   
     97. A(N  11,C  20,H  32)          127.1335         0.372582   
     98. A(N  10,C  20,H  32)          118.5718         0.382219   
     99. A(N  10,C  20,N  11)          111.6110         0.458350   
    100. A(N  11,C  21,C  22)          105.9572         0.471178   
    101. A(C  22,C  21,H  33)          130.1415         0.356853   
    102. A(N  11,C  21,H  33)          123.6237         0.361327   
    103. A(N  10,C  22,C  21)          110.3766         0.445769   
    104. A(C  21,C  22,H  34)          130.0311         0.394252   
    105. A(N  10,C  22,H  34)          109.3211         0.378716   
    106. D(H  24,O   1,Mn  0,O   4)   -110.0616         0.002022   
    107. D(H  24,O   1,Mn  0,N  10)    155.6079         0.002022   
    108. D(H  24,O   1,Mn  0,O   3)    -34.0656         0.002022   
    109. D(H  23,O   1,Mn  0,O   3)    101.3027         0.002022   
    110. D(H  23,O   1,Mn  0,N  10)    -69.0239         0.002022   
    111. D(H  24,O   1,Mn  0,N   8)     54.8767         0.002022   
    112. D(H  23,O   1,Mn  0,N   8)   -169.7551         0.002022   
    113. D(H  23,O   1,Mn  0,O   4)     25.3066         0.002022   
    114. D(H  26,O   2,Mn  0,O   4)     13.1646         0.002008   
    115. D(H  26,O   2,Mn  0,O   3)    -62.7710         0.002008   
    116. D(H  25,O   2,Mn  0,N  10)   -121.2801         0.002008   
    117. D(H  25,O   2,Mn  0,O   4)    144.4364         0.002008   
    118. D(H  25,O   2,Mn  0,O   3)     68.5008         0.002008   
    119. D(H  26,O   2,Mn  0,N   8)   -151.7818         0.002008   
    120. D(H  26,O   2,O   1,H  23)     38.0287         0.001500   
    121. D(H  25,O   2,Mn  0,N   8)    -20.5100         0.002008   
    122. D(H  25,O   2,O   1,H  23)    169.1638         0.001500   
    123. D(H  25,O   2,O   1,H  24)     34.7163         0.001500   
    124. D(H  26,O   2,O   1,H  24)    -96.4188         0.001500   
    125. D(H  26,O   2,Mn  0,N  10)    107.4481         0.002008   
    126. D(C  12,O   3,Mn  0,N  10)    -14.0244         0.001691   
    127. D(C  12,O   3,Mn  0,N   8)   -179.3756         0.001691   
    128. D(C  12,O   3,Mn  0,O   4)     -1.1730         0.001691   
    129. D(C  12,O   3,Mn  0,O   2)     89.2067         0.001691   
    130. D(C  12,O   3,Mn  0,O   1)    -88.3564         0.001691   
    131. D(C  13,O   4,Mn  0,N  10)    177.7032         0.001826   
    132. D(C  13,O   4,Mn  0,N   8)      6.7995         0.001826   
    133. D(C  13,O   4,Mn  0,O   3)     -0.0663         0.001826   
    134. D(C  13,O   4,Mn  0,O   1)     88.8664         0.001826   
    135. D(C  13,O   4,Mn  0,O   2)    -91.4152         0.001826   
    136. D(C  17,N   8,Mn  0,O   1)    -96.8029         0.002008   
    137. D(C  19,N   8,Mn  0,O   2)    -94.8774         0.002008   
    138. D(C  19,N   8,Mn  0,O   1)     85.4848         0.002008   
    139. D(C  17,N   8,Mn  0,N  10)    173.9486         0.002008   
    140. D(C  17,N   8,Mn  0,O   4)    -15.2855         0.002008   
    141. D(C  17,N   8,Mn  0,O   3)     -8.6258         0.002008   
    142. D(C  17,N   8,Mn  0,O   2)     82.8349         0.002008   
    143. D(C  22,N  10,Mn  0,O   2)    171.8604         0.002009   
    144. D(C  22,N  10,Mn  0,O   1)    -10.5946         0.002009   
    145. D(C  20,N  10,Mn  0,N   8)    -93.2881         0.002009   
    146. D(C  20,N  10,Mn  0,O   4)     89.1313         0.002009   
    147. D(C  20,N  10,Mn  0,O   3)    101.6257         0.002009   
    148. D(C  20,N  10,Mn  0,O   2)     -1.6621         0.002009   
    149. D(C  20,N  10,Mn  0,O   1)    175.8829         0.002009   
    150. D(C  16,C  12,O   3,Mn  0)   -177.9964         0.065079   
    151. D(C  13,C  12,O   3,Mn  0)      2.3189         0.065079   
    152. D(C  14,C  13,C  12,C  16)     -1.7721         0.019611   
    153. D(C  14,C  13,C  12,O   3)    177.9666         0.019611   
    154. D(O   4,C  13,C  12,C  16)    177.5403         0.019611   
    155. D(O   4,C  13,C  12,O   3)     -2.7210         0.019611   
    156. D(C  14,C  13,O   4,Mn  0)   -179.5381         0.058815   
    157. D(C  12,C  13,O   4,Mn  0)      1.2866         0.058815   
    158. D(C  15,C  14,C  13,C  12)      2.3326         0.018042   
    159. D(C  15,C  14,C  13,O   4)   -176.9279         0.018042   
    160. D(O   5,C  14,C  13,C  12)   -179.2599         0.018042   
    161. D(O   5,C  14,C  13,O   4)      1.4796         0.018042   
    162. D(C  16,C  15,C  14,C  13)     -1.9846         0.014039   
    163. D(C  16,C  15,C  14,O   5)    179.5908         0.014039   
    164. D(O   6,C  15,C  14,C  13)    177.4540         0.014039   
    165. D(O   6,C  15,C  14,O   5)     -0.9705         0.014039   
    166. D(C  15,C  16,C  12,O   3)   -179.2290         0.015921   
    167. D(O   7,C  16,C  12,C  13)   -178.4893         0.015921   
    168. D(O   7,C  16,C  12,O   3)      1.7906         0.015921   
    169. D(C  12,C  16,C  15,C  14)      0.9254         0.013278   
    170. D(C  12,C  16,C  15,O   6)   -178.5189         0.013278   
    171. D(O   7,C  16,C  15,C  14)    179.9353         0.013278   
    172. D(O   7,C  16,C  15,O   6)      0.4910         0.013278   
    173. D(C  15,C  16,C  12,C  13)      0.4911         0.015921   
    174. D(H  29,C  17,N   9,H  27)     -1.6708         0.037355   
    175. D(H  29,C  17,N   9,C  18)   -179.7638         0.037355   
    176. D(N   8,C  17,N   9,H  27)    178.8966         0.037355   
    177. D(N   8,C  17,N   9,C  18)      0.8036         0.037355   
    178. D(H  29,C  17,N   8,C  19)    179.8838         0.047117   
    179. D(H  29,C  17,N   8,Mn  0)      1.7259         0.047117   
    180. D(N   9,C  17,N   8,C  19)     -0.7701         0.047117   
    181. D(N   9,C  17,N   8,Mn  0)   -178.9279         0.047117   
    182. D(H  30,C  18,N   9,H  27)      1.5058         0.038744   
    183. D(H  30,C  18,N   9,C  17)    179.2223         0.038744   
    184. D(C  19,C  18,N   9,H  27)   -178.2045         0.038744   
    185. D(C  19,C  18,N   9,C  17)     -0.4880         0.038744   
    186. D(H  31,C  19,C  18,H  30)      1.3520         0.041264   
    187. D(H  31,C  19,C  18,N   9)   -178.9360         0.041264   
    188. D(N   8,C  19,C  18,H  30)   -179.6862         0.041264   
    189. D(N   8,C  19,C  18,N   9)      0.0258         0.041264   
    190. D(H  31,C  19,N   8,C  17)    179.5999         0.032019   
    191. D(H  31,C  19,N   8,Mn  0)     -2.3367         0.032019   
    192. D(C  18,C  19,N   8,C  17)      0.4530         0.032019   
    193. D(C  18,C  19,N   8,Mn  0)    178.5163         0.032019   
    194. D(H  32,C  20,N  11,H  28)    -20.9395         0.039802   
    195. D(H  32,C  20,N  11,C  21)    163.7269         0.039802   
    196. D(N  10,C  20,N  11,H  28)    178.1113         0.039802   
    197. D(N  10,C  20,N  11,C  21)      2.7778         0.039802   
    198. D(H  32,C  20,N  10,C  22)   -163.3332         0.055264   
    199. D(H  32,C  20,N  10,Mn  0)     11.4102         0.055264   
    200. D(N  11,C  20,N  10,C  22)     -0.5692         0.055264   
    201. D(N  11,C  20,N  10,Mn  0)    174.1743         0.055264   
    202. D(H  33,C  21,N  11,H  28)     -4.2517         0.060228   
    203. D(H  33,C  21,N  11,C  20)    170.8149         0.060228   
    204. D(C  22,C  21,N  11,H  28)   -178.7433         0.060228   
    205. D(C  22,C  21,N  11,C  20)     -3.6767         0.060228   
    206. D(H  34,C  22,C  21,H  33)    -29.9505         0.040002   
    207. D(H  34,C  22,C  21,N  11)    144.0476         0.040002   
    208. D(N  10,C  22,C  21,H  33)   -170.5712         0.040002   
    209. D(N  10,C  22,C  21,N  11)      3.4269         0.040002   
    210. D(H  34,C  22,N  10,C  20)   -150.7595         0.030780   
    211. D(H  34,C  22,N  10,Mn  0)     34.4127         0.030780   
    212. D(C  21,C  22,N  10,C  20)     -1.7429         0.030780   
    213. D(C  21,C  22,N  10,Mn  0)   -176.5707         0.030780   
    -----------------------------------------------------------------

Number of atoms                         .... 35
Number of degrees of freedom            .... 213


         *************************************************************
         *                GEOMETRY OPTIMIZATION CYCLE   1            *
         *************************************************************
---------------------------------
CARTESIAN COORDINATES (ANGSTROEM)
---------------------------------
  Mn     2.353500    1.308300    2.109100
  O      4.442100    1.279700    1.494400
  O      0.254700    1.424100    2.691600
  O      1.783600    0.758900   -0.059200
  O      2.203600    3.280100    1.070500
  O      1.844200    5.363000   -1.024300
  O      0.981700    3.968900   -3.468400
  O      0.951200    1.095000   -2.922500
  N      2.426000   -0.818700    2.587400
  N      2.187000   -2.977700    2.390800
  N      2.963000    2.174700    4.015400
  N      2.959200    2.937400    6.046200
  C      1.653500    1.825200   -0.716400
  C      1.892000    3.119100   -0.151600
  C      1.705300    4.128900   -1.165200
  C      1.279300    3.442000   -2.401400
  C      1.262700    1.985500   -2.113700
  C      2.034300   -1.787400    1.796300
  C      2.678200   -2.748600    3.610500
  C      2.826500   -1.425900    3.734800
  C      2.225400    2.582600    4.993500
  C      4.198200    2.818600    5.744300
  C      4.228300    2.303600    4.506900
  H      4.866500    1.977600    1.338100
  H      4.719000    0.743500    0.911800
  H     -0.191200    0.715800    2.711700
  H     -0.148300    1.950200    2.344600
  H      1.945200   -3.706800    1.965700
  H      2.632300    3.244100    6.749600
  H      1.640900   -1.755400    0.793400
  H      2.857100   -3.321800    4.191900
  H      3.146000   -0.883900    4.416900
  H      1.228000    2.349400    4.985300
  H      5.035500    3.191200    6.394400
  H      4.838900    2.473900    3.777400

----------------------------
CARTESIAN COORDINATES (A.U.)
----------------------------
  NO LB      ZA    FRAG     MASS         X           Y           Z
   0 Mn   25.0000    0    54.940    4.447470    2.472329    3.985621
   1 O     8.0000    0    15.999    8.394352    2.418283    2.824007
   2 O     8.0000    0    15.999    0.481313    2.691159    5.086387
   3 O     8.0000    0    15.999    3.370516    1.434113   -0.111872
   4 O     8.0000    0    15.999    4.164201    6.198491    2.022952
   5 O     8.0000    0    15.999    3.485033   10.134601   -1.935646
   6 O     8.0000    0    15.999    1.855144    7.500134   -6.554326
   7 O     8.0000    0    15.999    1.797507    2.069250   -5.522725
   8 N     7.0000    0    14.007    4.584476   -1.547119    4.889477
   9 N     7.0000    0    14.007    4.132831   -5.627038    4.517957
  10 N     7.0000    0    14.007    5.599259    4.109587    7.588006
  11 N     7.0000    0    14.007    5.592078    5.550882   11.425662
  12 C     6.0000    0    12.011    3.124662    3.449128   -1.353800
  13 C     6.0000    0    12.011    3.575362    5.894245   -0.286482
  14 C     6.0000    0    12.011    3.222550    7.802490   -2.201909
  15 C     6.0000    0    12.011    2.417527    6.504437   -4.537988
  16 C     6.0000    0    12.011    2.386157    3.752051   -3.994314
  17 C     6.0000    0    12.011    3.844270   -3.377696    3.394515
  18 C     6.0000    0    12.011    5.061065   -5.194101    6.822856
  19 C     6.0000    0    12.011    5.341311   -2.694560    7.057749
  20 C     6.0000    0    12.011    4.205397    4.880407    9.436347
  21 C     6.0000    0    12.011    7.933448    5.326382   10.855154
  22 C     6.0000    0    12.011    7.990329    4.353173    8.516807
  23 H     1.0000    0     1.008    9.196352    3.737122    2.528643
  24 H     1.0000    0     1.008    8.917618    1.405011    1.723052
  25 H     1.0000    0     1.008   -0.361316    1.352666    5.124370
  26 H     1.0000    0     1.008   -0.280246    3.685344    4.430652
  27 H     1.0000    0     1.008    3.675895   -7.004837    3.714635
  28 H     1.0000    0     1.008    4.974326    6.130461   12.754896
  29 H     1.0000    0     1.008    3.100852   -3.317225    1.499309
  30 H     1.0000    0     1.008    5.399137   -6.277292    7.921543
  31 H     1.0000    0     1.008    5.945078   -1.670329    8.346731
  32 H     1.0000    0     1.008    2.320584    4.439723    9.420852
  33 H     1.0000    0     1.008    9.515716    6.030494   12.083665
  34 H     1.0000    0     1.008    9.144196    4.674993    7.138251

--------------------------------
INTERNAL COORDINATES (ANGSTROEM)
--------------------------------
 Mn     0   0   0     0.000000000000     0.00000000     0.00000000
 O      1   0   0     2.177366301292     0.00000000     0.00000000
 O      1   2   0     2.181210060952   177.54332802     0.00000000
 O      1   2   3     2.308278852305    88.19538961    82.57956581
 O      1   2   4     2.233641692394    86.82988290   284.00398993
 O      5   1   2     2.975874293380   162.42002387    86.01291442
 O      6   5   1     2.942965489094   106.76448134     6.54845495
 O      7   6   5     2.925446678714   108.26678939   357.12256036
 N      1   2   5     2.181319816075    90.98630040   164.93827506
 N      9   1   2     2.181067069120   160.36035531   261.36577909
 N      1   2   5     2.180852791914    89.07787276   265.66949923
 N     11   1   2     2.169302738209   163.23312364   187.46461401
 C      4   1   2     1.259298828714   108.31262767   271.64363680
 C      5   1   2     1.271433824467   110.58528616    88.86639014
 C      6   5   1     1.249859524107    53.24989358     4.11438824
 C      7   6   5     1.226653321032    53.84133350   357.08877525
 C      8   7   6     1.242650369171    54.18671066     0.21564356
 C      9   1   2     1.310590626397   125.34063079   263.19705446
 C     10   9   1     1.334703090579    72.98558869   183.40568177
 C     19  10   9     1.336779215129   107.19599792     0.00000000
 C     11   1   2     1.291168377866   128.90368057   175.88292352
 C     12  11   1     1.280772442708    75.22795524   166.82813170
 C     22  12  11     1.340630362926   105.95716541   357.91255462
 H      2   1  11     0.831630603093   122.11052841   290.97614200
 H      2   1  11     0.838812738339   121.40806915   155.60791790
 H      3   1   2     0.837209477968   118.29271131   151.01036838
 H      3   1   2     0.748063640341   115.58379962    19.73860744
 H     10   9   1     0.877931694382   153.62409438     0.43976104
 H     12  11   1     0.834086362435   156.84477920   340.09078687
 H     18   9   1     1.077773617231   130.45372504     1.72588364
 H     19  10   9     0.835816612661   126.63585577   179.69443966
 H     20  19  10     0.927957251171   133.19413405   181.06400354
 H     21  11   1     1.024332094587   118.57181835    11.41018397
 H     22  12  11     1.123624519134   123.62365458   172.40415147
 H     23  22  12     0.966439185878   130.03106401   144.04763731

---------------------------
INTERNAL COORDINATES (A.U.)
---------------------------
 Mn     0   0   0     0.000000000000     0.00000000     0.00000000
 O      1   0   0     4.114626002670     0.00000000     0.00000000
 O      1   2   0     4.121889655754   177.54332802     0.00000000
 O      1   2   3     4.362014871579    88.19538961    82.57956581
 O      1   2   4     4.220971079933    86.82988290   284.00398993
 O      5   1   2     5.623587423465   162.42002387    86.01291442
 O      6   5   1     5.561398795970   106.76448134     6.54845495
 O      7   6   5     5.528293042159   108.26678939   357.12256036
 N      1   2   5     4.122097062877    90.98630040   164.93827506
 N      9   1   2     4.121619440351   160.36035531   261.36577909
 N      1   2   5     4.121214515115    89.07787276   265.66949923
 N     11   1   2     4.099388076780   163.23312364   187.46461401
 C      4   1   2     2.379729907037   108.31262767   271.64363680
 C      5   1   2     2.402661725648   110.58528616    88.86639014
 C      6   5   1     2.361892206435    53.24989358     4.11438824
 C      7   6   5     2.318038838016    53.84133350   357.08877525
 C      8   7   6     2.348268877949    54.18671066     0.21564356
 C      9   1   2     2.476657357575   125.34063079   263.19705446
 C     10   9   1     2.522223311292    72.98558869   183.40568177
 C     19  10   9     2.526146618111   107.19599792     0.00000000
 C     11   1   2     2.439954626945   128.90368057   175.88292352
 C     12  11   1     2.420309156591    75.22795524   166.82813170
 C     22  12  11     2.533424232750   105.95716541   357.91255462
 H      2   1  11     1.571554084433   122.11052841   290.97614200
 H      2   1  11     1.585126353106   121.40806915   155.60791790
 H      3   1   2     1.582096630083   118.29271131   151.01036838
 H      3   1   2     1.413635410988   115.58379962    19.73860744
 H     10   9   1     1.659050466671   153.62409438     0.43976104
 H     12  11   1     1.576194797041   156.84477920   340.09078687
 H     18   9   1     2.036696970933   130.45372504     1.72588364
 H     19  10   9     1.579464496111   126.63585577   179.69443966
 H     20  19  10     1.753585068699   133.19413405   181.06400354
 H     21  11   1     1.935707128954   118.57181835    11.41018397
 H     22  12  11     2.123342618523   123.62365458   172.40415147
 H     23  22  12     1.826305386399   130.03106401   144.04763731

---------------------
BASIS SET INFORMATION
---------------------
There are 5 groups of distinct atoms

 Group   1 Type Mn  : 17s11p7d1f contracted to 6s4p4d1f pattern {842111/6311/4111/1}
 Group   2 Type O   : 11s6p2d1f contracted to 5s3p2d1f pattern {62111/411/11/1}
 Group   3 Type N   : 11s6p2d1f contracted to 5s3p2d1f pattern {62111/411/11/1}
 Group   4 Type C   : 11s6p2d1f contracted to 5s3p2d1f pattern {62111/411/11/1}
 Group   5 Type H   : 5s1p contracted to 3s1p pattern {311/1}

Atom   0Mn   basis set group =>   1
Atom   1O    basis set group =>   2
Atom   2O    basis set group =>   2
Atom   3O    basis set group =>   2
Atom   4O    basis set group =>   2
Atom   5O    basis set group =>   2
Atom   6O    basis set group =>   2
Atom   7O    basis set group =>   2
Atom   8N    basis set group =>   3
Atom   9N    basis set group =>   3
Atom  10N    basis set group =>   3
Atom  11N    basis set group =>   3
Atom  12C    basis set group =>   4
Atom  13C    basis set group =>   4
Atom  14C    basis set group =>   4
Atom  15C    basis set group =>   4
Atom  16C    basis set group =>   4
Atom  17C    basis set group =>   4
Atom  18C    basis set group =>   4
Atom  19C    basis set group =>   4
Atom  20C    basis set group =>   4
Atom  21C    basis set group =>   4
Atom  22C    basis set group =>   4
Atom  23H    basis set group =>   5
Atom  24H    basis set group =>   5
Atom  25H    basis set group =>   5
Atom  26H    basis set group =>   5
Atom  27H    basis set group =>   5
Atom  28H    basis set group =>   5
Atom  29H    basis set group =>   5
Atom  30H    basis set group =>   5
Atom  31H    basis set group =>   5
Atom  32H    basis set group =>   5
Atom  33H    basis set group =>   5
Atom  34H    basis set group =>   5
---------------------------------
AUXILIARY/J BASIS SET INFORMATION
---------------------------------
There are 5 groups of distinct atoms

 Group   1 Type Mn  : 19s5p5d3f3g contracted to 8s5p5d2f3g pattern {121111111/11111/11111/21/111}
 Group   2 Type O   : 12s5p4d2f1g contracted to 6s4p3d1f1g pattern {711111/2111/211/2/1}
 Group   3 Type N   : 12s5p4d2f1g contracted to 6s4p3d1f1g pattern {711111/2111/211/2/1}
 Group   4 Type C   : 12s5p4d2f1g contracted to 6s4p3d1f1g pattern {711111/2111/211/2/1}
 Group   5 Type H   : 5s2p1d contracted to 3s1p1d pattern {311/2/1}

Atom   0Mn   basis set group =>   1
Atom   1O    basis set group =>   2
Atom   2O    basis set group =>   2
Atom   3O    basis set group =>   2
Atom   4O    basis set group =>   2
Atom   5O    basis set group =>   2
Atom   6O    basis set group =>   2
Atom   7O    basis set group =>   2
Atom   8N    basis set group =>   3
Atom   9N    basis set group =>   3
Atom  10N    basis set group =>   3
Atom  11N    basis set group =>   3
Atom  12C    basis set group =>   4
Atom  13C    basis set group =>   4
Atom  14C    basis set group =>   4
Atom  15C    basis set group =>   4
Atom  16C    basis set group =>   4
Atom  17C    basis set group =>   4
Atom  18C    basis set group =>   4
Atom  19C    basis set group =>   4
Atom  20C    basis set group =>   4
Atom  21C    basis set group =>   4
Atom  22C    basis set group =>   4
Atom  23H    basis set group =>   5
Atom  24H    basis set group =>   5
Atom  25H    basis set group =>   5
Atom  26H    basis set group =>   5
Atom  27H    basis set group =>   5
Atom  28H    basis set group =>   5
Atom  29H    basis set group =>   5
Atom  30H    basis set group =>   5
Atom  31H    basis set group =>   5
Atom  32H    basis set group =>   5
Atom  33H    basis set group =>   5
Atom  34H    basis set group =>   5


           ************************************************************
           *        Program running with 16 parallel MPI-processes    *
           *              working on a common directory               *
           ************************************************************
------------------------------------------------------------------------------
                             ORCA STARTUP CALCULATIONS
                           -- RI-GTO INTEGRALS CHOSEN --
------------------------------------------------------------------------------
------------------------------------------------------------------------------
                   ___                                                        
                  /   \      - P O W E R E D   B Y -                         
                 /     \                                                     
                 |  |  |   _    _      __       _____    __    __             
                 |  |  |  | |  | |    /  \     |  _  \  |  |  /  |          
                  \  \/   | |  | |   /    \    | | | |  |  | /  /          
                 / \  \   | |__| |  /  /\  \   | |_| |  |  |/  /          
                |  |  |   |  __  | /  /__\  \  |    /   |      \           
                |  |  |   | |  | | |   __   |  |    \   |  |\   \          
                \     /   | |  | | |  |  |  |  | |\  \  |  | \   \       
                 \___/    |_|  |_| |__|  |__|  |_| \__\ |__|  \__/        
                                                                              
                      - O R C A' S   B I G   F R I E N D -                    
                                      &                                       
                       - I N T E G R A L  F E E D E R -                       
                                                                              
 v1 FN, 2020, v2 2021, v3 2022-2024                                           
------------------------------------------------------------------------------


----------------------
SHARK INTEGRAL PACKAGE
----------------------

Number of atoms                             ...     35
Number of basis functions                   ...    799
Number of shells                            ...    305
Maximum angular momentum                    ...      3
Integral batch strategy                     ... SHARK/LIBINT Hybrid
RI-J (if used) integral strategy            ... SPLIT-RIJ (Revised 2003 algorithm where possible)
Printlevel                                  ...      1
Contraction scheme used                     ... SEGMENTED contraction
Prescreening option                         ... SCHWARTZ
   Thresh                                   ... 2.500e-11
   Tcut                                     ... 2.500e-12
   Tpresel                                  ... 2.500e-12 
Coulomb Range Separation                    ... NOT USED
Exchange Range Separation                   ... NOT USED
Multipole approximations                    ... NOT USED
Finite Nucleus Model                        ... NOT USED
CABS basis                                  ... NOT available
Auxiliary Coulomb fitting basis             ... AVAILABLE
   # of basis functions in Aux-J            ...   1299
   # of shells in Aux-J                     ...    413
   Maximum angular momentum in Aux-J        ...      4
Auxiliary J/K fitting basis                 ... NOT available
Auxiliary Correlation fitting basis         ... NOT available
Auxiliary 'external' fitting basis          ... NOT available

Checking pre-screening integrals            ... done (  0.0 sec) Dimension = 305
Check shell pair data                       ... done (  0.0 sec)
Shell pair information
Shell pair cut-off parameter TPreSel        ...   2.5e-12
Total number of shell pairs                 ...     46665
Shell pairs after pre-screening             ...     30704
Total number of primitive shell pairs       ...    151005
Primitive shell pairs kept                  ...     63673
          la=0 lb=0:   7384 shell pairs
          la=1 lb=0:   8713 shell pairs
          la=1 lb=1:   2611 shell pairs
          la=2 lb=0:   4554 shell pairs
          la=2 lb=1:   2758 shell pairs
          la=2 lb=2:    722 shell pairs
          la=3 lb=0:   1965 shell pairs
          la=3 lb=1:   1235 shell pairs
          la=3 lb=2:    625 shell pairs
          la=3 lb=3:    137 shell pairs

Calculating one electron integrals          ... done (  0.0 sec)
done (  0.2 sec)
Calculating Nuclear repulsion               ... done (  0.0 sec) ENN=   2424.914704242384 Eh

Diagonalization of the overlap matrix:
Smallest eigenvalue                        ... 5.283e-05
Time for diagonalization                   ...    0.099 sec
Threshold for overlap eigenvalues          ... 1.000e-07
Number of eigenvalues below threshold      ... 0
Time for construction of square roots      ...    0.060 sec
Total time needed                          ...    0.176 sec

-------------------
DFT GRID GENERATION
-------------------

General Integration Accuracy     IntAcc      ... 4.959
Radial Grid Type                 RadialGrid  ... OptM3 with GC (2021)
Angular Grid (max. ang.)         AngularGrid ... 6 (Lebedev-590)
Angular grid pruning method      GridPruning ... 4 (adaptive)
Weight generation scheme         WeightScheme... mBecke (2022)
Basis function cutoff            BFCut       ... 1.0000e-11
Integration weight cutoff        WCut        ... 1.0000e-14
Partially contracted basis set               ... off
Rotationally invariant grid construction     ... off
Angular grids for H and He will be reduced by one unit
Core-polarized basis detected: some atoms will have their core
                               angular grid increased.

Total number of grid points                  ...   443678
Total number of batches                      ...     6952
Average number of points per batch           ...       63
Average number of grid points per atom       ...    12677

--------------------
COSX GRID GENERATION
--------------------

GRIDX 1
-------
General Integration Accuracy     IntAcc      ... 4.020
Radial Grid Type                 RadialGrid  ... OptM3 with GC (2021)
Angular Grid (max. ang.)         AngularGrid ... 2 (Lebedev-110)
Angular grid pruning method      GridPruning ... 4 (adaptive)
Weight generation scheme         WeightScheme... mBecke (2022)
Basis function cutoff            BFCut       ... 1.0000e-11
Integration weight cutoff        WCut        ... 1.0000e-14
Partially contracted basis set               ... on
Rotationally invariant grid construction     ... off
Angular grids for H and He will be reduced by one unit
Core-polarized basis detected: some atoms will have their core
                               angular grid increased.

Total number of grid points                  ...    53310
Total number of batches                      ...      433
Average number of points per batch           ...      123
Average number of grid points per atom       ...     1523
UseSFitting                                  ... on

GRIDX 2
-------
General Integration Accuracy     IntAcc      ... 4.338
Radial Grid Type                 RadialGrid  ... OptM3 with GC (2021)
Angular Grid (max. ang.)         AngularGrid ... 3 (Lebedev-194)
Angular grid pruning method      GridPruning ... 4 (adaptive)
Weight generation scheme         WeightScheme... mBecke (2022)
Basis function cutoff            BFCut       ... 1.0000e-11
Integration weight cutoff        WCut        ... 1.0000e-14
Partially contracted basis set               ... on
Rotationally invariant grid construction     ... off
Angular grids for H and He will be reduced by one unit
Core-polarized basis detected: some atoms will have their core
                               angular grid increased.

Total number of grid points                  ...   110770
Total number of batches                      ...      883
Average number of points per batch           ...      125
Average number of grid points per atom       ...     3165
UseSFitting                                  ... on

GRIDX 3
-------
General Integration Accuracy     IntAcc      ... 4.871
Radial Grid Type                 RadialGrid  ... OptM3 with GC (2021)
Angular Grid (max. ang.)         AngularGrid ... 4 (Lebedev-302)
Angular grid pruning method      GridPruning ... 4 (adaptive)
Weight generation scheme         WeightScheme... mBecke (2022)
Basis function cutoff            BFCut       ... 1.0000e-11
Integration weight cutoff        WCut        ... 1.0000e-14
Partially contracted basis set               ... on
Rotationally invariant grid construction     ... off
Angular grids for H and He will be reduced by one unit
Core-polarized basis detected: some atoms will have their core
                               angular grid increased.

Total number of grid points                  ...   204553
Total number of batches                      ...     1616
Average number of points per batch           ...      126
Average number of grid points per atom       ...     5844
UseSFitting                                  ... on
Initializing property integral containers    ... done (  0.0 sec)

SHARK setup successfully completed in   6.6 seconds

Maximum memory used throughout the entire STARTUP-calculation: 128.2 MB


           ************************************************************
           *        Program running with 16 parallel MPI-processes    *
           *              working on a common directory               *
           ************************************************************
-------------------------------------------------------------------------------
                                 ORCA GUESS
                   Start orbitals & Density for SCF / CASSCF
-------------------------------------------------------------------------------

------------
SCF SETTINGS
------------
Hamiltonian:
 Density Functional     Method          .... DFT(GTOs)
 Exchange Functional    Exchange        .... PBE
   PBE kappa parameter   XKappa         ....  0.804000
   PBE mue parameter    XMuePBE         ....  0.219520
 Correlation Functional Correlation     .... PBE
   PBE beta parameter  CBetaPBE         ....  0.066725
 LDA part of GGA corr.  LDAOpt          .... PW91-LDA
 Gradients option       PostSCFGGA      .... off
 Hybrid DFT is turned on
   Fraction HF Exchange ScalHFX         ....  0.250000
   Scaling of DF-GGA-X  ScalDFX         ....  0.750000
   Scaling of DF-GGA-C  ScalDFC         ....  1.000000
   Scaling of DF-LDA-C  ScalLDAC        ....  1.000000
   Perturbative correction              ....  0.000000
   NL short-range parameter             ....  6.900000
 RI-approximation to the Coulomb term is turned on
   Number of AuxJ basis functions       .... 1299
   RIJ-COSX (HFX calculated with COS-X)).... on


General Settings:
 Integral files         IntName         .... KEYPIT-S6
 Hartree-Fock type      HFTyp           .... UHF
 Total Charge           Charge          ....    0
 Multiplicity           Mult            ....    2
 Number of Electrons    NEL             ....  187
 Basis Dimension        Dim             ....  799
 Nuclear Repulsion      ENuc            ....   2424.9147042424 Eh

Convergence Acceleration:
 AO-DIIS                CNVDIIS         .... on
   Start iteration      DIISMaxIt       ....    12
   Startup error        DIISStart       ....  0.200000
   # of expansion vecs  DIISMaxEq       ....     5
   Bias factor          DIISBfac        ....   1.050
   Max. coefficient     DIISMaxC        ....  10.000
 MO-DIIS                CNVKDIIS        .... off
 Trust-Rad. Augm. Hess. CNVTRAH         .... auto
   Auto Start mean grad. ratio tolernc. ....  1.125000
   Auto Start start iteration           ....    50
   Auto Start num. interpolation iter.  ....    10
   Max. Number of Micro iterations      ....    24
   Max. Number of Macro iterations      .... Maxiter - #DIIS iter
   Number of Davidson start vectors     ....     2
   Converg. threshold    (grad. norm)   ....   1.000e-05
   Grad. Scal. Fac. for Micro threshold ....   0.100
   Minimum threshold for Micro iter.    ....   1.000e-02
   NR start threshold (gradient norm)   ....   1.000e-04
   Initial trust radius                 ....   0.400
   Minimum AH scaling param. (alpha)    ....   1.000
   Maximum AH scaling param. (alpha)    .... 1000.000
   Quad. conv. algorithm                .... NR
   White noise on init. David. guess    .... on
   Maximum white noise                  ....   0.010
   Pseudo random numbers                .... off
   Inactive MOs                         .... canonical
   Orbital update algorithm             .... Taylor
   Preconditioner                       .... Diag
   Full preconditioner red. dimension   ....   250
 SOSCF                  CNVSOSCF        .... on
   Start iteration      SOSCFMaxIt      ....   150
   Startup grad/error   SOSCFStart      ....  0.003300
   Hessian update       SOSCFHessUp     .... L-BFGS
 Level Shifting         CNVShift        .... on
   Level shift para.    LevelShift      ....    0.2500
   Turn off err/grad.   ShiftErr        ....    0.0010
 Zerner damping         CNVZerner       .... off
 Static damping         CNVDamp         .... on
   Fraction old density DampFac         ....    0.7000
   Max. Damping (<1)    DampMax         ....    0.9800
   Min. Damping (>=0)   DampMin         ....    0.0000
   Turn off err/grad.   DampErr         ....    0.1000

SCF Procedure:
 Maximum # iterations   MaxIter         ....   125
 SCF integral mode      SCFMode         .... Direct
   Integral package                     .... SHARK and LIBINT hybrid scheme
 Reset frequency        DirectResetFreq ....    20
 Integral Threshold     Thresh          ....  2.500e-11 Eh
 Primitive CutOff       TCut            ....  2.500e-12 Eh

Convergence Tolerance:
 Convergence Check Mode ConvCheckMode   .... Total+1el-Energy
 Convergence forced     ConvForced      .... 0
 Energy Change          TolE            ....  1.000e-08 Eh
 1-El. energy change                    ....  1.000e-05 Eh
 Orbital Gradient       TolG            ....  1.000e-05
 Orbital Rotation angle TolX            ....  1.000e-05
 DIIS Error             TolErr          ....  5.000e-07

------------------------------
INITIAL GUESS: MODEL POTENTIAL
------------------------------
Loading Hartree-Fock densities                     ... done
Calculating cut-offs                               ... done
Initializing the effective Hamiltonian             ... done
Setting up the integral package (SHARK)            ... done
done (   0.2 sec)
Making the grid                                    ... done (   0.2 sec)
Mapping shells                                     ... done
Starting the XC term evaluation                    ... done (   0.1 sec)
  promolecular density results
     # of electrons  =    186.997683070
     EX              =   -194.180831871
     EC              =     -6.617311858
     EX+EC           =   -200.798143729
Transforming the Hamiltonian                       ... done (   0.1 sec)
done (   0.1 sec)
Back transforming the eigenvectors                 ... done (   0.0 sec)
done
                      ------------------
                      INITIAL GUESS DONE (   0.9 sec)
                      ------------------
             **** ENERGY FILE WAS UPDATED (KEYPIT-S6.en.tmp) ****
Finished Guess after   1.4 sec
Maximum memory used throughout the entire GUESS-calculation: 60.2 MB


           ************************************************************
           *        Program running with 16 parallel MPI-processes    *
           *              working on a common directory               *
           ************************************************************

-------------------------------------------------------------------------------------------
                                      ORCA LEAN-SCF
                              memory conserving SCF solver
-------------------------------------------------------------------------------------------

----------------------------------------D-I-I-S--------------------------------------------
Iteration    Energy (Eh)           Delta-E    RMSDP     MaxDP     DIISErr   Damp  Time(sec)
-------------------------------------------------------------------------------------------
               ***  Starting incremental Fock matrix formation  ***
    1    -2320.7298832113856406     0.00e+00  1.67e-03  2.92e-01  1.65e-01  0.700  13.3
Warning: op=0 Small HOMO/LUMO gap (   0.078) - skipping pre-diagonalization
         Will do a full diagonalization
    2    -2321.1397060032250010    -4.10e-01  1.57e-03  2.73e-01  7.45e-02  0.700   8.3
                               ***Turning on AO-DIIS***
    3    -2321.2878035242929400    -1.48e-01  5.35e-04  8.26e-02  2.58e-02  0.700   7.3
    4    -2321.3845360406403415    -9.67e-02  4.50e-04  3.01e-02  1.32e-02  0.000   7.1
    5    -2321.6033174527065057    -2.19e-01  4.02e-04  6.84e-02  7.20e-03  0.000   7.2
    6    -2321.6049754883160858    -1.66e-03  1.07e-04  1.62e-02  4.10e-03  0.000   6.4
    7    -2321.6056032464566670    -6.28e-04  3.86e-05  4.87e-03  3.88e-03  0.000   6.4
                              *** Initializing SOSCF ***
---------------------------------------S-O-S-C-F--------------------------------------
Iteration    Energy (Eh)           Delta-E    RMSDP     MaxDP     MaxGrad    Time(sec)
--------------------------------------------------------------------------------------
    8    -2321.6060720879295332    -4.69e-04  2.42e-05  3.88e-03  3.05e-03     6.5
               *** Restarting incremental Fock matrix formation ***
    9    -2321.6064812732738574    -4.09e-04  4.45e-05  7.39e-03  4.35e-03    13.3
               *** Scaled step length from 0.628416 to 0.200000 ***
   10    -2321.6071813251364802    -7.00e-04  1.82e-04  3.21e-02  4.39e-03     9.6
               *** Scaled step length from 1.042480 to 0.200000 ***
   11    -2321.6099309093187912    -2.75e-03  1.80e-04  2.87e-02  7.65e-03    10.6
   12    -2321.6119146544351679    -1.98e-03  1.28e-04  1.96e-02  8.60e-03    10.5
   13    -2321.6132460726412319    -1.33e-03  8.70e-05  7.59e-03  7.97e-03    10.1
   14    -2321.6148207603146147    -1.57e-03  1.11e-04  1.23e-02  3.54e-03    10.3
   15    -2321.6150755064927580    -2.55e-04  4.71e-05  5.25e-03  5.63e-03    10.5
   16    -2321.6156721310699140    -5.97e-04  3.86e-05  3.63e-03  1.77e-03     9.9
   17    -2321.6157788011087177    -1.07e-04  5.07e-05  6.75e-03  1.94e-03     9.5
   18    -2321.6160616817496702    -2.83e-04  9.47e-05  1.52e-02  2.00e-03     9.4
   19    -2321.6164481012192482    -3.86e-04  1.60e-04  2.58e-02  2.20e-03     9.8
   20    -2321.6170334979942709    -5.85e-04  1.17e-04  1.51e-02  3.08e-03    10.4
   21    -2321.6174901229624083    -4.57e-04  8.37e-05  1.35e-02  2.62e-03    10.3
   22    -2321.6180975433080675    -6.07e-04  6.49e-05  8.96e-03  1.78e-03     9.9
   23    -2321.6182436235230853    -1.46e-04  4.18e-05  5.49e-03  1.80e-03     9.7
   24    -2321.6183259385925339    -8.23e-05  4.22e-05  6.91e-03  9.10e-04     9.4
   25    -2321.6183695408062704    -4.36e-05  2.07e-05  2.95e-03  6.28e-04     9.0
   26    -2321.6183952728933946    -2.57e-05  2.47e-05  3.46e-03  5.55e-04     8.7
   27    -2321.6184365019144025    -4.12e-05  7.05e-05  1.31e-02  5.87e-04     8.4
               *** Scaled step length from 0.294280 to 0.200000 ***
   28    -2321.6185867146123201    -1.50e-04  1.77e-04  3.04e-02  1.08e-03     9.8
               *** Restarting incremental Fock matrix formation ***
               *** Scaled step length from 0.405402 to 0.200000 ***
   29    -2321.6188964084076360    -3.10e-04  1.77e-04  2.91e-02  2.68e-03    13.5
   30    -2321.6191457317854656    -2.49e-04  1.75e-04  2.45e-02  3.76e-03    10.0
   31    -2321.6195701924416426    -4.24e-04  1.09e-04  1.98e-02  3.82e-03    10.2
   32    -2321.6201169847463461    -5.47e-04  7.92e-05  1.70e-02  2.55e-03    10.0
   33    -2321.6204397246292501    -3.23e-04  6.53e-05  1.15e-02  1.74e-03     9.8
   34    -2321.6205886580337392    -1.49e-04  2.77e-05  4.17e-03  9.20e-04     9.6
   35    -2321.6206357582404962    -4.71e-05  1.57e-05  3.15e-03  7.99e-04     9.4
   36    -2321.6206683447726391    -3.26e-05  1.60e-05  2.11e-03  5.74e-04     8.7
   37    -2321.6206885097353734    -2.02e-05  1.17e-05  1.63e-03  4.39e-04     8.8
   38    -2321.6207028237386112    -1.43e-05  1.80e-05  2.71e-03  3.26e-04     8.2
   39    -2321.6207129655167591    -1.01e-05  1.08e-05  1.69e-03  4.66e-04     8.8
   40    -2321.6207218978370292    -8.93e-06  1.50e-05  2.60e-03  3.24e-04     7.9
   41    -2321.6207332384492474    -1.13e-05  1.68e-05  2.70e-03  2.85e-04     8.6
   42    -2321.6207434043080866    -1.02e-05  1.56e-05  2.64e-03  2.08e-04     8.4
   43    -2321.6207493225501821    -5.92e-06  5.47e-06  9.06e-04  2.09e-04     8.5
   44    -2321.6207527955994010    -3.47e-06  4.29e-06  6.61e-04  1.20e-04     7.9
   45    -2321.6207540856694322    -1.29e-06  3.39e-06  4.02e-04  6.73e-05     7.6
   46    -2321.6207546934156198    -6.08e-07  2.61e-06  4.15e-04  7.57e-05     7.1
   47    -2321.6207550748076756    -3.81e-07  1.78e-06  2.13e-04  3.79e-05     7.1
   48    -2321.6207552235782714    -1.49e-07  2.52e-06  6.07e-04  5.92e-05     6.5
               *** Restarting incremental Fock matrix formation ***
   49    -2321.6207553285803442    -1.05e-07  2.18e-06  4.63e-04  1.39e-05    13.5
   50    -2321.6207553549074873    -2.63e-08  1.68e-06  3.24e-04  1.22e-05     6.3
   51    -2321.6207553163349075     3.86e-08  1.17e-06  2.30e-04  7.47e-06     5.9
   52    -2321.6207553503118106    -3.40e-08  2.24e-06  4.37e-04  7.33e-06     5.4
   53    -2321.6207553845661096    -3.43e-08  1.07e-06  2.68e-04  6.62e-06     6.1
   54    -2321.6207553583690242     2.62e-08  1.74e-06  4.37e-04  6.09e-06     5.5
   55    -2321.6207553602735061    -1.90e-09  4.30e-06  9.91e-04  5.15e-06     5.5
                 **** Energy Check signals convergence ****

               *****************************************************
               *                     SUCCESS                       *
               *           SCF CONVERGED AFTER  55 CYCLES          *
               *****************************************************

 done (   17.650 sec)
Old exchange energy                            :    -49.280525296 Eh
New exchange energy                            :    -49.280528063 Eh
Exchange energy change after final integration :     -0.000002767 Eh
Total energy after final integration           :  -2321.620758127 Eh
             **** ENERGY FILE WAS UPDATED (KEYPIT-S6.en.tmp) ****

----------------
TOTAL SCF ENERGY
----------------

Total Energy       :      -2321.62075812729290 Eh          -63174.51256 eV

Components:
Nuclear Repulsion  :       2424.91470424238378 Eh           65985.28373 eV
Electronic Energy  :      -4746.53545960265728 Eh         -129159.79621 eV
One Electron Energy:      -8016.38799681470027 Eh         -218137.00726 eV
Two Electron Energy:       3269.85253721204299 Eh           88977.21105 eV

Virial components:
Potential Energy   :      -4640.77867207596319 Eh         -126282.00772 eV
Kinetic Energy     :       2319.15791394867028 Eh           63107.49516 eV
Virial Ratio       :          2.00106195622291

DFT components:
N(Alpha)           :       94.000005969196 electrons
N(Beta)            :       93.000005954309 electrons
N(Total)           :      187.000011923506 electrons
E(X)               :     -147.675674339154 Eh       
E(C)               :       -6.640491468391 Eh       
E(XC)              :     -154.316165807545 Eh       

---------------
SCF CONVERGENCE
---------------

  Last Energy change         ...    1.9045e-09  Tolerance :   1.0000e-08
  Last MAX-Density change    ...    9.9065e-04  Tolerance :   1.0000e-07
  Last RMS-Density change    ...    4.2984e-06  Tolerance :   5.0000e-09
  Last DIIS Error            ...    3.0512e-03  Tolerance :   5.0000e-07
  Last Orbital Gradient      ...    5.1533e-06  Tolerance :   1.0000e-05
  Last Orbital Rotation      ...    3.0617e-04  Tolerance :   1.0000e-05


----------------------
UHF SPIN CONTAMINATION
----------------------

Warning: in a DFT calculation there is little theoretical justification to 
         calculate <S**2> as in Hartree-Fock theory. We will do it anyways
         but you should keep in mind that the values have only limited relevance

Expectation value of <S**2>     :     2.044737
Ideal value S*(S+1) for S=0.5   :     0.750000
Deviation                       :     1.294737

----------------
ORBITAL ENERGIES
----------------
                 SPIN UP ORBITALS
  NO   OCC          E(Eh)            E(eV) 
   0   1.0000    -235.749235     -6415.0628 
   1   1.0000     -27.407468      -745.7951 
   2   1.0000     -23.452718      -638.1809 
   3   1.0000     -23.447730      -638.0452 
   4   1.0000     -23.447184      -638.0303 
   5   1.0000     -19.259308      -524.0724 
   6   1.0000     -19.255287      -523.9630 
   7   1.0000     -19.155699      -521.2531 
   8   1.0000     -19.153574      -521.1953 
   9   1.0000     -19.125539      -520.4324 
  10   1.0000     -19.117400      -520.2109 
  11   1.0000     -19.113197      -520.0965 
  12   1.0000     -14.488158      -394.2428 
  13   1.0000     -14.487617      -394.2281 
  14   1.0000     -14.444155      -393.0454 
  15   1.0000     -14.441578      -392.9753 
  16   1.0000     -10.329474      -281.0793 
  17   1.0000     -10.323129      -280.9066 
  18   1.0000     -10.305787      -280.4347 
  19   1.0000     -10.278048      -279.6799 
  20   1.0000     -10.272467      -279.5280 
  21   1.0000     -10.268494      -279.4199 
  22   1.0000     -10.232926      -278.4521 
  23   1.0000     -10.230669      -278.3907 
  24   1.0000     -10.230424      -278.3840 
  25   1.0000     -10.230088      -278.3749 
  26   1.0000     -10.227356      -278.3005 
  27   1.0000      -3.215605       -87.5011 
  28   1.0000      -2.068855       -56.2964 
  29   1.0000      -2.061112       -56.0857 
  30   1.0000      -2.057779       -55.9950 
  31   1.0000      -1.210186       -32.9308 
  32   1.0000      -1.174463       -31.9588 
  33   1.0000      -1.152317       -31.3561 
  34   1.0000      -1.130936       -30.7743 
  35   1.0000      -1.028523       -27.9875 
  36   1.0000      -0.999129       -27.1877 
  37   1.0000      -0.998783       -27.1783 
  38   1.0000      -0.995962       -27.1015 
  39   1.0000      -0.984205       -26.7816 
  40   1.0000      -0.969031       -26.3687 
  41   1.0000      -0.960435       -26.1348 
  42   1.0000      -0.852211       -23.1898 
  43   1.0000      -0.847183       -23.0530 
  44   1.0000      -0.790367       -21.5070 
  45   1.0000      -0.747106       -20.3298 
  46   1.0000      -0.735377       -20.0106 
  47   1.0000      -0.711321       -19.3560 
  48   1.0000      -0.694717       -18.9042 
  49   1.0000      -0.692235       -18.8367 
  50   1.0000      -0.671629       -18.2760 
  51   1.0000      -0.666190       -18.1280 
  52   1.0000      -0.650972       -17.7139 
  53   1.0000      -0.602750       -16.4017 
  54   1.0000      -0.601737       -16.3741 
  55   1.0000      -0.551904       -15.0181 
  56   1.0000      -0.548076       -14.9139 
  57   1.0000      -0.543111       -14.7788 
  58   1.0000      -0.530444       -14.4341 
  59   1.0000      -0.529323       -14.4036 
  60   1.0000      -0.527029       -14.3412 
  61   1.0000      -0.518269       -14.1028 
  62   1.0000      -0.503939       -13.7129 
  63   1.0000      -0.498833       -13.5739 
  64   1.0000      -0.494537       -13.4570 
  65   1.0000      -0.489493       -13.3198 
  66   1.0000      -0.468095       -12.7375 
  67   1.0000      -0.444842       -12.1048 
  68   1.0000      -0.439306       -11.9541 
  69   1.0000      -0.425859       -11.5882 
  70   1.0000      -0.414941       -11.2911 
  71   1.0000      -0.412765       -11.2319 
  72   1.0000      -0.410686       -11.1753 
  73   1.0000      -0.403156       -10.9704 
  74   1.0000      -0.386817       -10.5258 
  75   1.0000      -0.380667       -10.3585 
  76   1.0000      -0.376821       -10.2538 
  77   1.0000      -0.373939       -10.1754 
  78   1.0000      -0.362910        -9.8753 
  79   1.0000      -0.351049        -9.5525 
  80   1.0000      -0.343933        -9.3589 
  81   1.0000      -0.308824        -8.4035 
  82   1.0000      -0.305522        -8.3137 
  83   1.0000      -0.299670        -8.1544 
  84   1.0000      -0.296304        -8.0628 
  85   1.0000      -0.293349        -7.9824 
  86   1.0000      -0.280311        -7.6277 
  87   1.0000      -0.269251        -7.3267 
  88   1.0000      -0.262239        -7.1359 
  89   1.0000      -0.246538        -6.7086 
  90   1.0000      -0.236137        -6.4256 
  91   1.0000      -0.194914        -5.3039 
  92   1.0000      -0.165458        -4.5024 
  93   1.0000      -0.157395        -4.2829 
  94   0.0000      -0.034771        -0.9462 
  95   0.0000      -0.031396        -0.8543 
  96   0.0000      -0.023726        -0.6456 
  97   0.0000      -0.021015        -0.5718 
  98   0.0000      -0.006231        -0.1695 
  99   0.0000      -0.005300        -0.1442 
 100   0.0000      -0.003518        -0.0957 
 101   0.0000      -0.002051        -0.0558 
 102   0.0000       0.003937         0.1071 
 103   0.0000       0.014270         0.3883 
 104   0.0000       0.020387         0.5548 

                 SPIN DOWN ORBITALS
  NO   OCC          E(Eh)            E(eV) 
   0   1.0000    -235.749019     -6415.0569 
   1   1.0000     -27.389660      -745.3105 
   2   1.0000     -23.438917      -637.8054 
   3   1.0000     -23.432896      -637.6415 
   4   1.0000     -23.430761      -637.5834 
   5   1.0000     -19.259408      -524.0751 
   6   1.0000     -19.255361      -523.9650 
   7   1.0000     -19.156273      -521.2687 
   8   1.0000     -19.153359      -521.1894 
   9   1.0000     -19.125422      -520.4292 
  10   1.0000     -19.117340      -520.2093 
  11   1.0000     -19.113125      -520.0946 
  12   1.0000     -14.488129      -394.2420 
  13   1.0000     -14.487630      -394.2284 
  14   1.0000     -14.444562      -393.0565 
  15   1.0000     -14.441743      -392.9798 
  16   1.0000     -10.329345      -281.0758 
  17   1.0000     -10.323202      -280.9086 
  18   1.0000     -10.305767      -280.4342 
  19   1.0000     -10.278081      -279.6808 
  20   1.0000     -10.272476      -279.5283 
  21   1.0000     -10.268407      -279.4176 
  22   1.0000     -10.232926      -278.4521 
  23   1.0000     -10.230758      -278.3931 
  24   1.0000     -10.230446      -278.3846 
  25   1.0000     -10.230108      -278.3754 
  26   1.0000     -10.227355      -278.3005 
  27   1.0000      -3.168203       -86.2112 
  28   1.0000      -2.019473       -54.9527 
  29   1.0000      -2.010215       -54.7007 
  30   1.0000      -2.004091       -54.5341 
  31   1.0000      -1.210047       -32.9271 
  32   1.0000      -1.174570       -31.9617 
  33   1.0000      -1.152345       -31.3569 
  34   1.0000      -1.130940       -30.7744 
  35   1.0000      -1.028931       -27.9986 
  36   1.0000      -0.999092       -27.1867 
  37   1.0000      -0.998807       -27.1789 
  38   1.0000      -0.996041       -27.1036 
  39   1.0000      -0.984394       -26.7867 
  40   1.0000      -0.969014       -26.3682 
  41   1.0000      -0.960261       -26.1300 
  42   1.0000      -0.852217       -23.1900 
  43   1.0000      -0.847169       -23.0526 
  44   1.0000      -0.790394       -21.5077 
  45   1.0000      -0.747083       -20.3292 
  46   1.0000      -0.735370       -20.0104 
  47   1.0000      -0.711260       -19.3544 
  48   1.0000      -0.694741       -18.9049 
  49   1.0000      -0.692335       -18.8394 
  50   1.0000      -0.671638       -18.2762 
  51   1.0000      -0.666278       -18.1303 
  52   1.0000      -0.650930       -17.7127 
  53   1.0000      -0.602869       -16.4049 
  54   1.0000      -0.601806       -16.3760 
  55   1.0000      -0.551664       -15.0116 
  56   1.0000      -0.548071       -14.9138 
  57   1.0000      -0.543205       -14.7813 
  58   1.0000      -0.531189       -14.4544 
  59   1.0000      -0.529511       -14.4087 
  60   1.0000      -0.527139       -14.3442 
  61   1.0000      -0.518084       -14.0978 
  62   1.0000      -0.504061       -13.7162 
  63   1.0000      -0.499178       -13.5833 
  64   1.0000      -0.494648       -13.4601 
  65   1.0000      -0.489560       -13.3216 
  66   1.0000      -0.467982       -12.7344 
  67   1.0000      -0.444140       -12.0857 
  68   1.0000      -0.435843       -11.8599 
  69   1.0000      -0.424785       -11.5590 
  70   1.0000      -0.414978       -11.2921 
  71   1.0000      -0.412374       -11.2213 
  72   1.0000      -0.409722       -11.1491 
  73   1.0000      -0.403670       -10.9844 
  74   1.0000      -0.387009       -10.5311 
  75   1.0000      -0.379166       -10.3176 
  76   1.0000      -0.376565       -10.2469 
  77   1.0000      -0.373856       -10.1731 
  78   1.0000      -0.362860        -9.8739 
  79   1.0000      -0.349910        -9.5215 
  80   1.0000      -0.343263        -9.3407 
  81   1.0000      -0.308530        -8.3955 
  82   1.0000      -0.305256        -8.3064 
  83   1.0000      -0.298630        -8.1261 
  84   1.0000      -0.292204        -7.9513 
  85   1.0000      -0.280901        -7.6437 
  86   1.0000      -0.274537        -7.4705 
  87   1.0000      -0.241697        -6.5769 
  88   1.0000      -0.236668        -6.4401 
  89   1.0000      -0.231972        -6.3123 
  90   1.0000      -0.193354        -5.2614 
  91   1.0000      -0.165411        -4.5011 
  92   1.0000      -0.158240        -4.3059 
  93   0.0000      -0.041847        -1.1387 
  94   0.0000      -0.030923        -0.8415 
  95   0.0000      -0.019354        -0.5266 
  96   0.0000      -0.012099        -0.3292 
  97   0.0000      -0.007919        -0.2155 
  98   0.0000      -0.005838        -0.1589 
  99   0.0000      -0.004127        -0.1123 
 100   0.0000      -0.001212        -0.0330 
 101   0.0000      -0.000707        -0.0192 
 102   0.0000       0.010109         0.2751 
 103   0.0000       0.015071         0.4101 
*Only the first 10 virtual orbitals were printed.

                    ********************************
                    * MULLIKEN POPULATION ANALYSIS *
                    ********************************

--------------------------------------------
MULLIKEN ATOMIC CHARGES AND SPIN POPULATIONS
--------------------------------------------
   0 Mn:    0.592835    1.061367
   1 O :   -0.467898   -0.006249
   2 O :   -0.386149   -0.005962
   3 O :   -0.542110   -0.025047
   4 O :   -0.515338    0.003156
   5 O :   -0.378940    0.002591
   6 O :   -0.324739    0.004197
   7 O :   -0.374892    0.002083
   8 N :   -0.193579   -0.024583
   9 N :   -0.136278    0.001090
  10 N :   -0.169593   -0.012384
  11 N :   -0.136252    0.000129
  12 C :    0.228144    0.001847
  13 C :    0.240274   -0.005079
  14 C :    0.045894    0.001354
  15 C :    0.179715    0.000242
  16 C :    0.053611   -0.000684
  17 C :    0.029398    0.003990
  18 C :   -0.049066   -0.001713
  19 C :   -0.086498    0.001060
  20 C :    0.098302   -0.002340
  21 C :   -0.013503    0.000326
  22 C :   -0.103870    0.002717
  23 H :    0.290088   -0.002305
  24 H :    0.291848    0.002945
  25 H :    0.289088   -0.003065
  26 H :    0.214785    0.000481
  27 H :    0.195718    0.000010
  28 H :    0.166686   -0.000067
  29 H :    0.218464   -0.000086
  30 H :    0.147152   -0.000127
  31 H :    0.156866    0.000061
  32 H :    0.149201    0.000265
  33 H :    0.175565    0.000388
  34 H :    0.115069   -0.000606
Sum of atomic charges         :   -0.0000000
Sum of atomic spin populations:    1.0000000

-----------------------------------------------------
MULLIKEN REDUCED ORBITAL CHARGES AND SPIN POPULATIONS
-----------------------------------------------------
CHARGE
  0 Mns       :     6.442287  s :     6.442287
      pz      :     4.180094  p :    12.443828
      px      :     4.093459
      py      :     4.170276
      dz2     :     0.950676  d :     5.519294
      dxz     :     1.156924
      dyz     :     1.142261
      dx2y2   :     0.700423
      dxy     :     1.569009
      f0      :     0.000285  f :     0.001756
[...]
 47:    660.29   0.008418   42.54  0.003979  (-0.059990 -0.012222  0.015180)
 48:    660.56   0.000385    1.95  0.000182  ( 0.008843 -0.004629  0.009077)
 49:    689.72   0.001425    7.20  0.000645  ( 0.023800  0.000265 -0.008846)
 50:    692.89   0.000517    2.61  0.000233  ( 0.004903 -0.006827  0.012731)
 51:    744.68   0.016895   85.38  0.007080  (-0.078560 -0.026605  0.014165)
 52:    749.41   0.001485    7.50  0.000618  (-0.011087  0.009679 -0.020043)
 53:    766.35   0.000003    0.01  0.000001  (-0.000270  0.000491 -0.000924)
 54:    840.67   0.000144    0.73  0.000053  ( 0.006969  0.001766 -0.001290)
 55:    865.04   0.006031   30.48  0.002176  ( 0.044638  0.008456 -0.010562)
 56:    871.65   0.000080    0.40  0.000029  (-0.001382 -0.004815 -0.001873)
 57:    875.21   0.002426   12.26  0.000865  ( 0.008897 -0.013326  0.024663)
 58:    880.19   0.003793   19.17  0.001345  ( 0.028425 -0.014782 -0.017843)
 59:    890.01   0.000024    0.12  0.000008  ( 0.000782 -0.001262  0.002460)
 60:    939.99   0.000453    2.29  0.000150  ( 0.000697  0.010956  0.005458)
 61:    942.07   0.000018    0.09  0.000006  ( 0.000742 -0.000965  0.002128)
 62:    954.52   0.000133    0.67  0.000043  ( 0.002744 -0.004811 -0.003581)
 63:    957.48   0.000004    0.02  0.000001  (-0.000309  0.000518 -0.000998)
 64:   1091.94   0.019031   96.18  0.005439  ( 0.011575  0.062740  0.036995)
 65:   1092.81   0.025643  129.59  0.007323  ( 0.023934 -0.042937  0.070044)
 66:   1094.50   0.000509    2.57  0.000145  ( 0.002819 -0.008212  0.008350)
 67:   1105.54   0.001273    6.43  0.000359  ( 0.001670  0.016943  0.008330)
 68:   1114.95   0.001227    6.20  0.000343  (-0.016633  0.003565  0.007356)
 69:   1121.23   0.004958   25.06  0.001380  ( 0.010653 -0.016511  0.031527)
 70:   1168.36   0.008187   41.38  0.002187  ( 0.002011  0.041359  0.021731)
 71:   1169.67   0.000133    0.67  0.000035  (-0.002727  0.003712  0.003761)
 72:   1171.41   0.001542    7.79  0.000411  (-0.005911  0.010089 -0.016553)
 73:   1203.69   0.003572   18.05  0.000926  ( 0.002763 -0.025854 -0.015813)
 74:   1204.70   0.000277    1.40  0.000072  (-0.002602  0.006462 -0.004815)
 75:   1289.99   0.000820    4.14  0.000198  ( 0.001761  0.012463  0.006313)
 76:   1292.25   0.001316    6.65  0.000318  (-0.005135  0.008281 -0.014931)
 77:   1388.23   0.000627    3.17  0.000141  (-0.003793  0.010047  0.005067)
 78:   1388.80   0.001462    7.39  0.000329  ( 0.004946 -0.007258  0.015855)
 79:   1389.54   0.002153   10.88  0.000483  ( 0.006410 -0.009792  0.018614)
 80:   1459.17   0.090165  455.66  0.019283  ( 0.012507  0.123911  0.061422)
 81:   1477.71   0.000663    3.35  0.000140  ( 0.009811 -0.006269  0.002104)
 82:   1478.12   0.008175   41.31  0.001726  (-0.010629  0.018174 -0.035815)
 83:   1538.93   0.007777   39.30  0.001577  ( 0.004278  0.036463  0.015135)
 84:   1539.35   0.003141   15.87  0.000637  (-0.007677  0.007663 -0.022783)
 85:   1575.95   0.281938  1424.80  0.055828  ( 0.068233 -0.105744  0.199976)
 86:   1591.10   0.001363    6.89  0.000267  ( 0.009951 -0.009724 -0.008586)
 87:   1592.46   0.004099   20.72  0.000803  (-0.008218  0.012697 -0.023970)
 88:   1641.43   0.002081   10.52  0.000396  (-0.017529 -0.008323  0.004371)
 89:   1645.75   0.057321  289.68  0.010869  (-0.030523  0.046371 -0.088244)
 90:   1758.51   0.136518  689.91  0.024226  ( 0.008262  0.138663  0.070219)
 91:   1812.12   0.006621   33.46  0.001140  ( 0.009755 -0.014758  0.028763)
 92:   1838.56   0.063513  320.97  0.010780  (-0.030021  0.046272 -0.087965)
 93:   3282.64   0.000236    1.19  0.000022  (-0.000256  0.004671  0.000733)
 94:   3283.96   0.003822   19.31  0.000363  ( 0.007865 -0.005478  0.016472)
 95:   3284.50   0.001278    6.46  0.000121  (-0.002481 -0.009178  0.005568)
 96:   3285.11   0.004749   24.00  0.000451  ( 0.005758 -0.009590  0.018056)
 97:   3305.90   0.000009    0.04  0.000001  ( 0.000548  0.000601  0.000383)
 98:   3306.74   0.000003    0.01  0.000000  (-0.000255 -0.000423 -0.000064)
 99:   3684.90   0.050619  255.81  0.004287  ( 0.001781 -0.057027 -0.032116)
100:   3685.33   0.001770    8.94  0.000150  ( 0.002735 -0.011517  0.003117)
101:   3775.45   0.001106    5.59  0.000091  ( 0.006757 -0.001463  0.006602)
102:   3776.55   0.011309   57.15  0.000934  ( 0.007601 -0.014541  0.025792)
103:   3859.65   0.000780    3.94  0.000063  ( 0.000010 -0.007938  0.000148)
104:   3861.21   0.021974  111.05  0.001776  (-0.005314 -0.037355 -0.018770)

* The epsilon (eps) is given for a Dirac delta lineshape.
** The dipole moment derivative (T) already includes vibrational overlap.

The first frequency considered to be a vibration is 6
The total number of vibrations considered is 99


--------------------------
THERMOCHEMISTRY AT 298.15K
--------------------------

Temperature         ...   298.15 K
Pressure            ...     1.00 atm
Total Mass          ...   367.18 AMU
Quasi RRHO          ...     True
Cut-Off Frequency   ...     1.00 cm^-1

Throughout the following assumptions are being made:
  (1) The electronic state is orbitally nondegenerate
      but the spin degeneracy is treated
  (2) There are no thermally accessible electronically excited states
  (3) Hindered rotations indicated by low frequency modes are not
      treated as such but are treated as vibrations and this may
      cause some error
  (4) All equations used are the standard statistical mechanics
      equations for an ideal gas
  (5) All vibrations are strictly harmonic

freq.      33.48  E(vib)   ...       0.55 
freq.      37.33  E(vib)   ...       0.54 
freq.      42.02  E(vib)   ...       0.53 
freq.      52.39  E(vib)   ...       0.52 
freq.      60.87  E(vib)   ...       0.51 
freq.      61.25  E(vib)   ...       0.51 
freq.      67.40  E(vib)   ...       0.50 
freq.      77.30  E(vib)   ...       0.49 
freq.      86.22  E(vib)   ...       0.48 
freq.     116.28  E(vib)   ...       0.44 
freq.     123.50  E(vib)   ...       0.43 
freq.     134.85  E(vib)   ...       0.42 
freq.     154.88  E(vib)   ...       0.40 
freq.     171.75  E(vib)   ...       0.38 
freq.     175.82  E(vib)   ...       0.38 
freq.     186.06  E(vib)   ...       0.37 
freq.     187.72  E(vib)   ...       0.36 
freq.     199.07  E(vib)   ...       0.35 
freq.     210.82  E(vib)   ...       0.34 
freq.     214.40  E(vib)   ...       0.34 
freq.     258.92  E(vib)   ...       0.30 
freq.     269.90  E(vib)   ...       0.29 
freq.     277.34  E(vib)   ...       0.28 
freq.     296.84  E(vib)   ...       0.27 
freq.     312.21  E(vib)   ...       0.25 
freq.     318.07  E(vib)   ...       0.25 
freq.     322.80  E(vib)   ...       0.25 
freq.     360.77  E(vib)   ...       0.22 
freq.     478.89  E(vib)   ...       0.15 
freq.     479.53  E(vib)   ...       0.15 
freq.     498.42  E(vib)   ...       0.14 
freq.     517.56  E(vib)   ...       0.13 
freq.     549.36  E(vib)   ...       0.12 
freq.     554.43  E(vib)   ...       0.12 
freq.     558.59  E(vib)   ...       0.12 
freq.     563.36  E(vib)   ...       0.11 
freq.     564.23  E(vib)   ...       0.11 
freq.     573.77  E(vib)   ...       0.11 
freq.     582.18  E(vib)   ...       0.11 
freq.     582.56  E(vib)   ...       0.11 
freq.     634.33  E(vib)   ...       0.09 
freq.     660.29  E(vib)   ...       0.08 
freq.     660.56  E(vib)   ...       0.08 
freq.     689.72  E(vib)   ...       0.07 
freq.     692.89  E(vib)   ...       0.07 
freq.     744.68  E(vib)   ...       0.06 
freq.     749.41  E(vib)   ...       0.06 
freq.     766.35  E(vib)   ...       0.06 
freq.     840.67  E(vib)   ...       0.04 
freq.     865.04  E(vib)   ...       0.04 
freq.     871.65  E(vib)   ...       0.04 
freq.     875.21  E(vib)   ...       0.04 
freq.     880.19  E(vib)   ...       0.04 
freq.     890.01  E(vib)   ...       0.04 
freq.     939.99  E(vib)   ...       0.03 
freq.     942.07  E(vib)   ...       0.03 
freq.     954.52  E(vib)   ...       0.03 
freq.     957.48  E(vib)   ...       0.03 
freq.    1091.94  E(vib)   ...       0.02 
freq.    1092.81  E(vib)   ...       0.02 
freq.    1094.50  E(vib)   ...       0.02 
freq.    1105.54  E(vib)   ...       0.02 
freq.    1114.95  E(vib)   ...       0.01 
freq.    1121.23  E(vib)   ...       0.01 
freq.    1168.36  E(vib)   ...       0.01 
freq.    1169.67  E(vib)   ...       0.01 
freq.    1171.41  E(vib)   ...       0.01 
freq.    1203.69  E(vib)   ...       0.01 
freq.    1204.70  E(vib)   ...       0.01 
freq.    1289.99  E(vib)   ...       0.01 
freq.    1292.25  E(vib)   ...       0.01 
freq.    1388.23  E(vib)   ...       0.00 
freq.    1388.80  E(vib)   ...       0.00 
freq.    1389.54  E(vib)   ...       0.00 
freq.    1459.17  E(vib)   ...       0.00 
freq.    1477.71  E(vib)   ...       0.00 
freq.    1478.12  E(vib)   ...       0.00 
freq.    1538.93  E(vib)   ...       0.00 
freq.    1539.35  E(vib)   ...       0.00 
freq.    1575.95  E(vib)   ...       0.00 
freq.    1591.10  E(vib)   ...       0.00 
freq.    1592.46  E(vib)   ...       0.00 
freq.    1641.43  E(vib)   ...       0.00 
freq.    1645.75  E(vib)   ...       0.00 
freq.    1758.51  E(vib)   ...       0.00 
freq.    1812.12  E(vib)   ...       0.00 
freq.    1838.56  E(vib)   ...       0.00 
freq.    3282.64  E(vib)   ...       0.00 
freq.    3283.96  E(vib)   ...       0.00 
freq.    3284.50  E(vib)   ...       0.00 
freq.    3285.11  E(vib)   ...       0.00 
freq.    3305.90  E(vib)   ...       0.00 
freq.    3306.74  E(vib)   ...       0.00 
freq.    3684.90  E(vib)   ...       0.00 
freq.    3685.33  E(vib)   ...       0.00 
freq.    3775.45  E(vib)   ...       0.00 
freq.    3776.55  E(vib)   ...       0.00 
freq.    3859.65  E(vib)   ...       0.00 
freq.    3861.21  E(vib)   ...       0.00 

------------
INNER ENERGY
------------

The inner energy is: U= E(el) + E(ZPE) + E(vib) + E(rot) + E(trans)
    E(el)   - is the total energy from the electronic structure calculation
              = E(kin-el) + E(nuc-el) + E(el-el) + E(nuc-nuc)
    E(ZPE)  - the the zero temperature vibrational energy from the frequency calculation
    E(vib)  - the the finite temperature correction to E(ZPE) due to population
              of excited vibrational states
    E(rot)  - is the rotational thermal energy
    E(trans)- is the translational thermal energy

Summary of contributions to the inner energy U:
Electronic energy                ...  -2321.99362339 Eh
Zero point energy                ...      0.24731083 Eh     155.19 kcal/mol
Thermal vibrational correction   ...      0.02158052 Eh      13.54 kcal/mol
Thermal rotational correction    ...      0.00141627 Eh       0.89 kcal/mol
Thermal translational correction ...      0.00141627 Eh       0.89 kcal/mol
-----------------------------------------------------------------------
Total thermal energy                  -2321.72189950 Eh


Summary of corrections to the electronic energy:
(perhaps to be used in another calculation)
Total thermal correction                  0.02441306 Eh      15.32 kcal/mol
Non-thermal (ZPE) correction              0.24731083 Eh     155.19 kcal/mol
-----------------------------------------------------------------------
Total correction                          0.27172389 Eh     170.51 kcal/mol


--------
ENTHALPY
--------

The enthalpy is H = U + kB*T
                kB is Boltzmann's constant
Total thermal energy              ...  -2321.72189950 Eh 
Thermal Enthalpy correction       ...      0.00094421 Eh       0.59 kcal/mol
-----------------------------------------------------------------------
Total Enthalpy                    ...  -2321.72095529 Eh


Note: Only C1 symmetry has been detected, increase convergence thresholds 
      if your molecule has a higher symmetry. Symmetry factor of 1.0 is   
      used for the rotational entropy correction. 
 

Note: Rotational entropy computed according to Herzberg 
Infrared and Raman Spectra, Chapter V,1, Van Nostrand Reinhold, 1945 
Point Group:  C1, Symmetry Number:   1  
Rotational constants in cm-1:     0.011461     0.006194     0.004416 

Vibrational entropy computed according to the QRRHO of S. Grimme
Chem.Eur.J. 2012 18 9955 using a reference frequency of 100.0 cm-1


-------
ENTROPY
-------

The entropy contributions are T*S = T*(S(el)+S(vib)+S(rot)+S(trans))
     S(el)   - electronic entropy
     S(vib)  - vibrational entropy
     S(rot)  - rotational entropy
     S(trans)- translational entropy
The entropies will be listed as multiplied by the temperature to get
units of energy

Electronic entropy                ...      0.00065446 Eh      0.41 kcal/mol
Vibrational entropy               ...      0.03887188 Eh     24.39 kcal/mol
Rotational entropy                ...      0.01658059 Eh     10.40 kcal/mol
Translational entropy             ...      0.02071335 Eh     13.00 kcal/mol
-----------------------------------------------------------------------
Final entropy term                ...      0.07682027 Eh     48.21 kcal/mol

In case the symmetry of your molecule has not been determined correctly
or in case you have a reason to use a different symmetry number we print 
out the resulting rotational entropy values for sn=1,12:

 non-linear molecules -----------------------------------
|  sn= 1 | S(rot)=       0.01658059 Eh     10.40 kcal/mol|
|  sn= 2 | S(rot)=       0.01592613 Eh      9.99 kcal/mol|
|  sn= 3 | S(rot)=       0.01554330 Eh      9.75 kcal/mol|
|  sn= 4 | S(rot)=       0.01527167 Eh      9.58 kcal/mol|
|  sn= 5 | S(rot)=       0.01506099 Eh      9.45 kcal/mol|
|  sn= 6 | S(rot)=       0.01488884 Eh      9.34 kcal/mol|
|  sn= 7 | S(rot)=       0.01474330 Eh      9.25 kcal/mol|
|  sn= 8 | S(rot)=       0.01461722 Eh      9.17 kcal/mol|
|  sn= 9 | S(rot)=       0.01450601 Eh      9.10 kcal/mol|
|  sn=10 | S(rot)=       0.01440653 Eh      9.04 kcal/mol|
|  sn=11 | S(rot)=       0.01431654 Eh      8.98 kcal/mol|
|  sn=12 | S(rot)=       0.01423439 Eh      8.93 kcal/mol|
 linear molecules ---------------------------------------
|  Dinfh | S(rot)=       0.01044562 Eh      6.55 kcal/mol|
|  Cinfv | S(rot)=       0.01110007 Eh      6.97 kcal/mol|
 --------------------------------------------------------


-------------------
GIBBS FREE ENERGY
-------------------

The Gibbs free energy is G = H - T*S

Total enthalpy                    ...  -2321.72095529 Eh 
Total entropy correction          ...     -0.07682027 Eh    -48.21 kcal/mol
-----------------------------------------------------------------------
Final Gibbs free energy         ...  -2321.79777556 Eh

For completeness - the Gibbs free energy minus the electronic energy
G-E(el)                           ...      0.19584783 Eh    122.90 kcal/mol


Maximum memory used throughout the entire PROP-calculation: 800.3 MB

--------------------------------
SUGGESTED CITATIONS FOR THIS RUN
--------------------------------

Below you find a list of papers that are relevant to this ORCA run
We neither can nor want to force you to cite these papers, but we appreciate if you do
You receive ORCA, which is the product of decades of hard work by many enthusiastic individuals, for free
The only thing we kindly ask in return is that you cite our papers,
We deeply appreciate it, if you show your appreciation for ORCA by not just citing the generic ORCA reference.

Please note that relegating all ORCA citations to the supporting information does *not* help us.
SI sections are not indexed - citations you put there will not count into any citation statistics
But we need these citations in order to attract the funding resources that allow us to do what we are doing

Therefore, if you are a happy ORCA user, please consider citing a few of the papers listed below in the main body of your paper

In addition to the list printed below, the program has created the file KEYPIT-S6.bibtex that contains the list in bibtex format
You can import this file easily into all common literature databanks and citation aid programs


List of essential papers. We consider these as the minimum necessary citations

  1. Neese,F.
     Software update: the ORCA program system, version 5.0
     WIRES Comput. Molec. Sci., 2022 12(1)e1606
     doi.org/10.1002/wcms.1606

List of papers to cite with high priority. The work reported in these papers was absolutely
necessary for this run to complete.
Our perspective: the developers of density functionals and basis sets usually get cited in chemistry papers
Good! But without the algorithms to do something with them, the functionals or basis sets would not do anything.
Hence, in our opinion, the algorithm design and method developments papers are equally worthy of getting cited

  1. Neese,F.
     An improvement of the resolution of the identity approximation for the formation of the Coulomb matrix
     J. Comp. Chem., 2003 24(14)1740-1747
     doi.org/10.1002/jcc.10318
  2. Neese,F.; Wennmohs,F.; Hansen,A.; Becker,U.
     Efficient, approximate and parallel Hartree-Fock and hybrid DFT calculations. A 'chain-of-spheres' algorithm for the Hartree-Fock exchange
     Chem. Phys., 2009 356(1-3)98-109
     doi.org/10.1016/j.chemphys.2008.10.036
  3. Bykov,D.; Petrenko,T.; Izsak,R.; Kossmann,S.; Becker,U.; Valeev,E.; Neese,F.
     Efficient implementation of the analytic second derivatives of Hartree-Fock and hybrid DFT energies: a detailed analysis of different approximations
     Molec. Phys., 2015 113 1961-1977
     doi.org/10.1080/00268976.2015.1025114
  4. Helmich-Paris,B.; de Souza,B.; Neese,F.; Izsák,R.
     An improved chain of spheres for exchange algorithm
     J. Chem. Phys., 2021 155 104109
     doi.org/doi: 10.1063/5.0058766.
  5. Neese,F.
     The SHARK Integral Generation and Digestion System
     J. Comp. Chem., 2022  1-16
     doi.org/10.1002/jcc.26942

List of suggested additional citations. These are papers that are important in the 'surrounding' of 
of this run, or papers that preceded the highly important papers. If you like your results we are grateful for a citation.

  1. Izsak,R.; Neese,F.
     An overlap fitted chain of spheres exchange method
     J. Chem. Phys., 2011 135 144105
     doi.org/10.1063/1.3646921
  2. Izsak,R.; Hansen,A.; Neese,F.
     The resolution of identity and chain of spheres approximations for the LPNO-CCSD singles Fock term
     Molec. Phys., 2012 110 2413-2417
     doi.org/10.1080/00268976.2012.687466
  3. Neese,F.
     The ORCA program system
     WIRES Comput. Molec. Sci., 2012 2(1)73-78
     doi.org/10.1002/wcms.81
  4. Izsak,R.; Neese,F.; Klopper,W.
     Robust fitting techniques in the chain of spheres approximation to the Fock exchange: The role of the complementary space
     J. Chem. Phys., 2013 139 
     doi.org/10.1063/1.4819264
  5. Neese,F.
     Software update: the ORCA program system, version 4.0
     WIRES Comput. Molec. Sci., 2018 8(1)1-6
     doi.org/10.1002/wcms.1327
  6. Neese,F.; Wennmohs,F.; Becker,U.; Riplinger,C.
     The ORCA quantum chemistry program package
     J. Chem. Phys., 2020 152 Art. No. L224108
     doi.org/10.1063/5.0004608

List of optional additional citations

  1. Neese,F.
     Approximate second-order SCF convergence for spin unrestricted wavefunctions
     Chem. Phys. Lett., 2000 325(1-3)93-98
     doi.org/10.1016/s0009-2614(00)00662-x

Timings for individual modules:

Sum of individual times          ...    13231.727 sec (= 220.529 min)
Startup calculation              ...      239.769 sec (=   3.996 min)   1.8 %
SCF iterations                   ...     5970.242 sec (=  99.504 min)  45.1 %
Property integrals               ...     1525.841 sec (=  25.431 min)  11.5 %
SCF Response                     ...     4001.944 sec (=  66.699 min)  30.2 %
Property calculations            ...      478.191 sec (=   7.970 min)   3.6 %
SCF Gradient evaluation          ...     1015.155 sec (=  16.919 min)   7.7 %
Geometry relaxation              ...        0.584 sec (=   0.010 min)   0.0 %
                             ****ORCA TERMINATED NORMALLY****
TOTAL RUN TIME: 0 days 3 hours 41 minutes 13 seconds 617 msec
