
                                 *****************
                                 * O   R   C   A *
                                 *****************

                                            #,                                       
                                            ###                                      
                                            ####                                     
                                            #####                                    
                                            ######                                   
                                           ########,                                 
                                     ,,################,,,,,                         
                               ,,#################################,,                 
                          ,,##########################################,,             
                       ,#########################################, ''#####,          
                    ,#############################################,,   '####,        
                  ,##################################################,,,,####,       
                ,###########''''           ''''###############################       
              ,#####''   ,,,,##########,,,,          '''####'''          '####       
            ,##' ,,,,###########################,,,                        '##       
           ' ,,###''''                  '''############,,,                           
         ,,##''                                '''############,,,,        ,,,,,,###''
      ,#''                                            '''#######################'''  
     '                                                          ''''####''''         
             ,#######,   #######,   ,#######,      ##                                
            ,#'     '#,  ##    ##  ,#'     '#,    #''#        ,####,   ,####,        
            ##       ##  ##   ,#'  ##            #'  '#       #'       #'  '#        
            ##       ##  #######   ##           ,######,      #####,   #    #        
            '#,     ,#'  ##    ##  '#,     ,#' ,#      #,     #,   #   #,  ,#        
             '#######'   ##     ##  '#######'  #'      '#     '####' # '####'        



                #########################################################
                #                        -***-                          #
                #          Department of theory and spectroscopy        #
                #                                                       #
                #                      Frank Neese                      #
                #                                                       #
                #     Directorship, Architecture, Infrastructure        #
                #                    SHARK, DRIVERS                     #
                #        Core code/Algorithms in most modules           #
                #                                                       #
                #        Max Planck Institute fuer Kohlenforschung      #
                #                Kaiser Wilhelm Platz 1                 #
                #                 D-45470 Muelheim/Ruhr                 #
                #                      Germany                          #
                #                                                       #
                #                  All rights reserved                  #
                #                        -***-                          #
                #########################################################


                         Program Version 6.0.1  -  RELEASE   -


 With contributions from (in alphabetic order):
[Max-Planck-Institut fuer Kohlenforschung]                               
  Daniel Aravena         : Magnetic Suceptibility                        
  Michael Atanasov       : Ab Initio Ligand Field Theory (pilot matlab implementation)
  Alexander A. Auer      : GIAO ZORA, VPT2 properties, NMR spectrum      
  Ute Becker             : All parallelization in ORCA, NUMFREQ, NUMCALC 
  Giovanni Bistoni       : ED, misc. LED, open-shell LED, HFLD           
  Martin Brehm           : Molecular dynamics                            
  Dmytro Bykov           : pre 5.0 version of the SCF Hessian            
  Marcos Casanova-Páez   : Triplet and SCS-CIS(D). UHF-(DLPNO)-IP/EA/STEOM-CCSD. UHF-CVS-IP/STEOM-CCSD   
  Vijay G. Chilkuri      : MRCI spin determinant printing, contributions to CSF-ICE 
  Pauline Colinet        : FMM embedding                                 
  Dipayan Datta          : RHF DLPNO-CCSD density                        
  Achintya Kumar Dutta   : EOM-CC, STEOM-CC                              
  Nicolas Foglia         : Exact transition moments, OPA infrastructure, MCD improvements    
  Dmitry Ganyushin       : Spin-Orbit,Spin-Spin,Magnetic field MRCI      
  Miquel Garcia-Rates    : C-PCM and meta-GGA Hessian, CCSD/C-PCM, Gaussian charge scheme 
  Tiago L. C. Gouveia    : GS-ROHF, GS-ROCIS                             
  Yang Guo               : DLPNO-NEVPT2, F12-NEVPT2, CIM, IAO-localization        
  Andreas Hansen         : Spin unrestricted coupled pair/coupled cluster methods 
  Ingolf Harden          : AUTO-CI MPn and infrastructure                
  Benjamin Helmich-Paris : MC-RPA, TRAH-(SCF,CASSCF), AVAS, COSX integrals, SCF dyn. polar. 
  Lee Huntington         : MR-EOM, pCC                                   
  Robert Izsak           : Overlap fitted RIJCOSX, COSX-SCS-MP3, EOM     
  Riya Kayal             : Wick's Theorem for AUTO-CI, AUTO-CI UHF-CCSDT 
  Emily Kempfer          : AUTO-CI, RHF CISDT and CCSDT                  
  Christian Kollmar      : KDIIS, OOCD, Brueckner-CCSD(T), CCSD density, CASPT2, CASPT2-K, improved NEVPT2 
  Axel Koslowski         : Symmetry handling                             
  Simone Kossmann        : meta-GGA functionals, TD-DFT gradient, OOMP2, (MP2 Hessian; deprecated post 5.0) 
  Lucas Lang             : DCDCAS                                        
  Marvin Lechner         : AUTO-CI (C++ implementation), FIC-MRCC        
  Spencer Leger          : CASSCF response                               
  Dagmar Lenk            : GEPOL surface, SMD, ORCA-2-JSON               
  Dimitrios Liakos       : Extrapolation schemes; Compound Job, initial MDCI parallelization 
  Dimitrios Manganas     : Further ROCIS development; embedding schemes. LFT, Crystal Embedding 
  Dimitrios Pantazis     : SARC Basis sets                               
  Anastasios Papadopoulos: AUTO-CI, single reference methods and gradients 
  Taras Petrenko         : pre 6.0 DFT Hessian and TD-DFT gradient, (ASA, deprecated), ECA, 1-Electron XAS/XES, NRVS 
  Peter Pinski           : DLPNO-MP2, DLPNO-MP2 Gradient                 
  Christoph Reimann      : Effective Core Potentials                     
  Marius Retegan         : Local ZFS, SOC                                
  Christoph Riplinger    : Optimizer, TS searches, QM/MM, DLPNO-CCSD(T), (RO)-DLPNO pert. Triples 
  Michael Roemelt        : Original ROCIS implementation                 
  Masaaki Saitow         : Open-shell DLPNO-CCSD energy and density      
  Barbara Sandhoefer     : DKH picture change effects                    
  Kantharuban Sivalingam : CASSCF convergence/infrastructure, NEVPT2 and variants, FIC-MRCI 
  Bernardo de Souza      : ESD, SOC TD-DFT                               
  Georgi L. Stoychev     : AutoAux, RI-MP2 NMR, DLPNO-MP2 response, X2C  
  Van Anh Tran           : RI-MP2 g-tensors                              
  Willem Van den Heuvel  : Paramagnetic NMR                              
  Zikuan Wang            : NOTCH, Electric field optimization            
  Frank Wennmohs         : Technical directorship and infrastructure     
  Hang Xu                : AUTO-CI-Response properties                   
                                                                         
[FACCTs GmbH]                                                            
  Markus Bursch, Miquel Garcia-Rates, Christoph Riplinger, Bernardo de Souza, Georgi L. Stoychev 
                                                                 
  APM, Basis sets (HGBS, AHGBS, def-TZVP (Ac-Lr), def2-XVPD (La-Lu)), CI-OPT, improved COSX, DLPNO-Multilevel,           
  DOCKER, DRACO, updates on ESD, GOAT, IRC, LR-CPCM, MBIS, meta-GGA TD-DFT gradient, ML-optimized integration grids, 
  MM, NACMEs, nearIR, NEB, NEB-TS, NL-DFT gradient (VV10), 2- and 3-layer-ONIOM, interface openCOSMO-RS, QMMM,   
  Crystal-QMMM, SF, symmetry and pop. for TD-DFT, r2SCAN hybrids, SOLVATOR                                   
                                                                         
[Other institutions]                                                     
  V. Asgeirsson          : NEB                                           
  Christoph Bannwarth    : sTDA-DFT, sTD-DFT, PBEh-3c, B97-3c, D3        
  Sebastian Ehlert       : rSCAN, r2SCAN, r2SCAN-3c, D4, dhf basis sets  
  Marvin Friede          : D4 for Fr, Ra, Ac-Lr                          
  Lars Goerigk           : TD-DFT with DH, B97 family of functionals     
  Stefan Grimme          : VdW corrections, initial TS optimization, DFT functionals, gCP, sTDA/sTD-DF 
  Waldemar Hujo          : DFT-NL                                        
  H. Jonsson             : NEB                                           
  Holger Kruse           : gCP                                           
  Marcel Mueller         : wB97X-3c, vDZP basis set                      
  Hagen Neugebauer       : wr2SCAN                                       
  Tobias Risthaus        : range-separated hybrid DFT                    
  Lukas Wittmann         : regularized MP2, r2SCAN double-hybrids, wr2SCAN        
                                                                         
We gratefully acknowledge several colleagues who have allowed us to      
interface, adapt or use parts of their codes:                            
  Ed Valeev, F. Pavosevic, A. Kumar             : LibInt (2-el integral package), F12 methods 
  Garnet Chan, S. Sharma, J. Yang, R. Olivares  : DMRG                   
  Ulf Ekstrom                                   : XCFun DFT Library      
  Mihaly Kallay                                 : mrcc  (arbitrary order and MRCC methods)
  Frank Weinhold                                : gennbo (NPA and NBO analysis)           
  Simon Mueller                                 : openCOSMO-RS                            
  Christopher J. Cramer and Donald G. Truhlar   : smd solvation model                     
  S Lehtola, MJT Oliveira, MAL Marques          : LibXC Library                           
  Liviu Ungur et al                             : ANISO software                          


 Your calculation uses the libint2 library for the computation of 2-el integrals
 For citations please refer to: http://libint.valeyev.net

 Your ORCA version has been built with support for libXC version: 6.2.2
 For citations please refer to: https://libxc.gitlab.io

 This ORCA versions uses:
   CBLAS   interface :  Fast vector & matrix operations
   LAPACKE interface :  Fast linear algebra routines
   SCALAPACK package :  Parallel linear algebra routines
   Shared memory     :  Shared parallel matrices
   BLAS/LAPACK       :  OpenBLAS 0.3.27  USE64BITINT DYNAMIC_ARCH NO_AFFINITY Cooperlake SINGLE_THREADED
        Core in use  :  Cooperlake
   Copyright (c) 2011-2014, The OpenBLAS Project


NOTE: MaxCore=3600 MB was set to SCF,MP2,MDCI,CIPSI,MRCI and CIS
      => If you want to overwrite this, your respective input block should be placed after the MaxCore statement
Warning: RI is on but no J-basis has been assigned. Assigning Def2/J (nothing to worry about!)
================================================================================

----- Orbital basis set information -----
Your calculation utilizes the basis: def2-TZVP
   F. Weigend and R. Ahlrichs, Phys. Chem. Chem. Phys. 7, 3297 (2005).

----- AuxJ basis set information -----
Your calculation utilizes the auxiliary basis: def2/J
   F. Weigend, Phys. Chem. Chem. Phys. 8, 1057 (2006).

================================================================================
                                        WARNINGS
                       Please study these warnings very carefully!
================================================================================


WARNING: your system is open-shell and RHF/RKS was chosen
  ===> : WILL SWITCH to UHF/UKS


WARNING: Geometry Optimization
  ===> : Switching off AutoStart
         For restart on a previous wavefunction, please use MOREAD

================================================================================
                                       INPUT FILE
================================================================================
NAME = OKUXUO-S6.inp
|  1> ! PBE0 def2-TZVP  Opt Freq DEFGRID3
|  2> 
|  3> %maxcore 3600
|  4> 
|  5> %pal
|  6>     nprocs 16
|  7> end
|  8> 
|  9> *xyz 0 2
| 10> C 2.1353 7.6813 7.0527
| 11> C -0.2517 5.3446 10.8493
| 12> C 3.8341 4.2994 9.2746
| 13> C 3.7872 5.5272 10.0772
| 14> H 3.2567 6.1863 9.6235
| 15> H 4.6787 5.8627 10.2005
| 16> H 3.397 5.3357 10.933
| 17> C 4.7866 3.2632 9.2619
| 18> H 5.5524 3.2082 9.7865
| 19> C 4.3813 2.3768 8.3529
| 20> C 5.0476 1.0867 7.9651
| 21> H 5.231 1.0927 7.0231
| 22> H 4.4666 0.3519 8.1737
| 23> H 5.8705 0.9932 8.4509
| 24> C -2.038 5.3386 6.49
| 25> H -2.0899 6.0883 7.0383
| 26> C -3.0961 5.0818 5.6435
| 27> H -3.8345 5.6459 5.624
| 28> C -3.0396 3.9787 4.8324
| 29> H -3.7427 3.7828 4.2571
| 30> C -1.9205 3.1518 4.8781
| 31> C -1.7597 1.9968 4.0712
| 32> H -2.4403 1.7578 3.4841
| 33> C -0.9024 3.5066 5.7592
| 34> C 0.2738 2.7005 5.842
| 35> C 0.412 1.5603 5.0504
| 36> C -0.6801 1.253 4.1295
| 37> H -0.6076 0.5122 3.5711
| 38> C 1.5933 0.8462 5.1771
| 39> H 1.7328 0.0965 4.6457
| 40> C 2.5574 1.2248 6.0676
| 41> H 3.3501 0.7453 6.1462
| 42> C 2.3189 2.3501 6.8541
| 43> Mn 0.8764 4.8907 7.8857
| 44> N 2.8602 4.0351 8.4069
| 45> N 3.1974 2.8386 7.8282
| 46> N 1.2077 3.0746 6.7409
| 47> N -0.9509 4.5815 6.5686
| 48> N 0.0449 5.1501 9.7468
| 49> N 1.4956 6.7683 7.2977
| 50> S -0.671 5.6415 12.3675
| 51> S 3.0384 8.9949 6.7266
| 52> *
| 53> 
| 54>                          ****END OF INPUT****
================================================================================

                       *****************************
                       * Geometry Optimization Run *
                       *****************************

Geometry optimization settings:
Update method            Update   .... BFGS
Choice of coordinates    CoordSys .... (2022) Redundant Internals
Initial Hessian          InHess   .... Almloef's Model
Max. no of cycles        MaxIter  .... 126

Convergence Tolerances:
Energy Change            TolE     ....  5.0000e-06 Eh
Max. Gradient            TolMAXG  ....  3.0000e-04 Eh/bohr
RMS Gradient             TolRMSG  ....  1.0000e-04 Eh/bohr
Max. Displacement        TolMAXD  ....  4.0000e-03 bohr
RMS Displacement         TolRMSD  ....  2.0000e-03 bohr
Strict Convergence                .... False

------------------------------------------------------------------------------
                        ORCA OPTIMIZATION COORDINATE SETUP
------------------------------------------------------------------------------

The optimization will be done in redundant internal coordinates (2022)
Making redundant internal coordinates   ...  (2022 redundants) done
Evaluating the initial hessian          ...  (Almloef) done
Evaluating the coordinates              ...  done
Calculating the B-matrix                .... done
Calculating the G-matrix                .... done
Diagonalizing the G-matrix              .... done
Small eigenvalue found = 1.270e-02
Small eigenvalue found = 1.573e-02
Small eigenvalue found = 1.803e-02
Small eigenvalue found = 2.867e-02
The first mode is                       ....  136
The number of degrees of freedom        ....  120

    -----------------------------------------------------------------
                    Redundant Internal Coordinates


    -----------------------------------------------------------------
         Definition                    Initial Value    Approx d2E/dq
    -----------------------------------------------------------------
      1. B(C   3,C   2)                  1.4676         0.469816   
      2. B(H   4,C   3)                  0.9600         0.580441   
      3. B(H   5,C   3)                  0.9605         0.579499   
      4. B(H   6,C   3)                  0.9599         0.580846   
      5. B(C   7,C   2)                  1.4075         0.585838   
      6. B(H   8,C   7)                  0.9299         0.648458   
      7. B(C   9,C   7)                  1.3328         0.771007   
      8. B(C  10,C   9)                  1.5029         0.412683   
      9. B(H  11,C  10)                  0.9597         0.581164   
     10. B(H  12,C  10)                  0.9597         0.581197   
     11. B(H  13,C  10)                  0.9602         0.580195   
     12. B(H  15,C  14)                  0.9303         0.647566   
     13. B(C  16,C  14)                  1.3792         0.650178   
     14. B(H  17,C  16)                  0.9294         0.649556   
     15. B(C  18,C  16)                  1.3704         0.671525   
     16. B(H  19,C  18)                  0.9294         0.649719   
     17. B(C  20,C  18)                  1.3922         0.619754   
     18. B(C  21,C  20)                  1.4181         0.563545   
     19. B(H  22,C  21)                  0.9301         0.648018   
     20. B(C  23,C  20)                  1.3924         0.619336   
     21. B(C  24,C  23)                  1.4283         0.542751   
     22. B(C  25,C  24)                  1.3949         0.613618   
     23. B(C  26,C  25)                  1.4612         0.480958   
     24. B(C  26,C  21)                  1.3123         0.831148   
     25. B(H  27,C  26)                  0.9305         0.646959   
     26. B(C  28,C  25)                  1.3862         0.633654   
     27. B(H  29,C  28)                  0.9295         0.649463   
     28. B(C  30,C  28)                  1.3659         0.682512   
     29. B(H  31,C  30)                  0.9298         0.648725   
     30. B(C  32,C  30)                  1.3935         0.616878   
     31. B(N  34,C   2)                  1.3309         0.695343   
     32. B(N  34,Mn 33)                  2.2224         0.266025   
     33. B(N  35,N  34)                  1.3712         0.537025   
     34. B(N  35,C  32)                  1.3997         0.539933   
     35. B(N  35,C   9)                  1.3748         0.591644   
     36. B(N  36,Mn 33)                  2.1722         0.319901   
     37. B(N  36,C  32)                  1.3313         0.694154   
     38. B(N  36,C  24)                  1.3491         0.650260   
     39. B(N  37,Mn 33)                  2.2736         0.220409   
     40. B(N  37,C  23)                  1.3464         0.656718   
     41. B(N  37,C  14)                  1.3271         0.705093   
     42. B(N  38,Mn 33)                  2.0548         0.492366   
     43. B(N  38,C   1)                  1.1581         1.311534   
     44. B(N  39,Mn 33)                  2.0627         0.478439   
     45. B(N  39,C   0)                  1.1414         1.394728   
     46. B(S  40,C   1)                  1.6028         0.770965   
     47. B(S  41,C   0)                  1.6271         0.705047   
     48. L(N  39,C   0,S  41,Mn 33, 1) 180.2015         0.542011   
     49. L(N  39,C   0,S  41,Mn 33, 2) 185.1168         0.542011   
     50. L(N  38,C   1,S  40,Mn 33, 2) 169.5369         0.544878   
     51. L(N  38,C   1,S  40,Mn 33, 1) 180.0143         0.544878   
     52. A(C   3,C   2,N  34)          119.9542         0.418854   
     53. A(C   3,C   2,C   7)          129.9751         0.408938   
     54. A(C   7,C   2,N  34)          110.0672         0.435750   
     55. A(C   2,C   3,H   6)          109.4919         0.365175   
     56. A(C   2,C   3,H   5)          109.4369         0.365030   
     57. A(C   2,C   3,H   4)          109.4854         0.365132   
     58. A(H   4,C   3,H   6)          109.4926         0.339570   
     59. A(H   4,C   3,H   5)          109.4965         0.339439   
     60. A(H   5,C   3,H   6)          109.4239         0.339478   
     61. A(C   2,C   7,C   9)          106.8571         0.446897   
     62. A(C   2,C   7,H   8)          126.5670         0.386648   
     63. A(H   8,C   7,C   9)          126.5758         0.405738   
     64. A(C   7,C   9,N  35)          107.3838         0.444745   
     65. A(C   7,C   9,C  10)          127.7402         0.419612   
     66. A(C  10,C   9,N  35)          124.8638         0.397817   
     67. A(C   9,C  10,H  13)          109.4511         0.357120   
     68. A(H  11,C  10,H  13)          109.4783         0.339577   
     69. A(H  11,C  10,H  12)          109.5015         0.339675   
     70. A(H  12,C  10,H  13)          109.5313         0.339581   
     71. A(C   9,C  10,H  11)          109.4285         0.357221   
     72. A(C   9,C  10,H  12)          109.4366         0.357225   
     73. A(H  15,C  14,C  16)          117.9709         0.393656   
     74. A(C  16,C  14,N  37)          123.9584         0.445145   
     75. A(H  15,C  14,N  37)          118.0707         0.396746   
     76. A(C  14,C  16,H  17)          120.6232         0.393868   
     77. A(H  17,C  16,C  18)          120.5907         0.396105   
     78. A(C  14,C  16,C  18)          118.7860         0.444158   
     79. A(H  19,C  18,C  20)          120.2158         0.390596   
     80. A(C  16,C  18,C  20)          119.4605         0.440326   
     81. A(C  16,C  18,H  19)          120.3237         0.396123   
     82. A(C  21,C  20,C  23)          118.9925         0.426608   
     83. A(C  18,C  20,C  23)          117.2052         0.433951   
     84. A(C  18,C  20,C  21)          123.7954         0.426659   
     85. A(C  20,C  21,C  26)          121.9811         0.449850   
     86. A(C  20,C  21,H  22)          119.0454         0.384000   
     87. A(H  22,C  21,C  26)          118.9735         0.411119   
     88. A(C  20,C  23,C  24)          119.6696         0.423747   
     89. A(C  24,C  23,N  37)          116.4468         0.425426   
     90. A(C  20,C  23,N  37)          123.8823         0.435628   
     91. A(C  23,C  24,C  25)          120.6640         0.423045   
     92. A(C  25,C  24,N  36)          122.4243         0.434129   
     93. A(C  23,C  24,N  36)          116.8828         0.424674   
     94. A(C  24,C  25,C  28)          116.9783         0.434960   
     95. A(C  26,C  25,C  28)          125.8873         0.416402   
     96. A(C  24,C  25,C  26)          117.0972         0.414030   
     97. A(C  25,C  26,H  27)          119.1694         0.373502   
     98. A(C  21,C  26,H  27)          119.2530         0.411000   
     99. A(C  21,C  26,C  25)          121.5776         0.437137   
    100. A(C  25,C  28,H  29)          119.4178         0.392087   
    101. A(H  29,C  28,C  30)          119.3641         0.397226   
    102. A(C  25,C  28,C  30)          121.2180         0.443394   
    103. A(H  31,C  30,C  32)          120.9760         0.390174   
    104. A(C  28,C  30,C  32)          118.0983         0.441248   
    105. A(C  28,C  30,H  31)          120.9258         0.397146   
    106. A(N  35,C  32,N  36)          113.1470         0.426473   
    107. A(C  30,C  32,N  36)          122.2979         0.439689   
    108. A(C  30,C  32,N  35)          124.5550         0.420303   
    109. A(N  34,Mn 33,N  36)           70.4631         0.412382   
    110. A(N  37,Mn 33,N  39)          101.5323         0.428463   
    111. A(N  38,Mn 33,N  39)          105.3524         0.496190   
    112. A(N  36,Mn 33,N  39)          124.4042         0.458327   
    113. A(N  34,Mn 33,N  39)           98.5885         0.443228   
    114. A(N  37,Mn 33,N  38)          102.5109         0.430675   
    115. A(N  36,Mn 33,N  38)          130.1347         0.460733   
    116. A(N  34,Mn 33,N  38)          101.3849         0.445536   
    117. A(N  36,Mn 33,N  37)           72.7572         0.398903   
    118. A(N  34,Mn 33,N  37)          143.2162         0.386234   
    119. A(Mn 33,N  34,N  35)          117.1595         0.400440   
    120. A(C   2,N  34,N  35)          105.5745         0.423361   
    121. A(C   2,N  34,Mn 33)          136.8568         0.421989   
    122. A(C  32,N  35,N  34)          116.3523         0.404755   
    123. A(C   9,N  35,N  34)          110.1080         0.411360   
    124. A(C   9,N  35,C  32)          133.5368         0.414486   
    125. A(C  32,N  36,Mn 33)          122.5107         0.436048   
    126. A(C  24,N  36,Mn 33)          118.5156         0.430955   
    127. A(C  24,N  36,C  32)          118.9153         0.440977   
    128. A(C  23,N  37,Mn 33)          115.3316         0.404008   
    129. A(C  14,N  37,Mn 33)          127.9578         0.409117   
    130. A(C  14,N  37,C  23)          116.7018         0.443016   
    131. A(C   1,N  38,Mn 33)          170.7610         0.530895   
    132. A(C   0,N  39,Mn 33)          163.2480         0.534189   
    133. D(H   5,C   3,C   2,C   7)     36.1403         0.016273   
    134. D(H   6,C   3,C   2,C   7)    -83.7934         0.016273   
    135. D(H   4,C   3,C   2,N  34)    -24.5965         0.016273   
    136. D(H   5,C   3,C   2,N  34)   -144.6151         0.016273   
    137. D(H   4,C   3,C   2,C   7)    156.1589         0.016273   
    138. D(H   8,C   7,C   2,N  34)   -179.0566         0.023602   
    139. D(H   8,C   7,C   2,C   3)      0.2466         0.023602   
    140. D(C   9,C   7,C   2,N  34)      1.0098         0.023602   
    141. D(C   9,C   7,C   2,C   3)   -179.6871         0.023602   
    142. D(N  35,C   9,C   7,C   2)     -0.8810         0.042626   
    143. D(C  10,C   9,C   7,H   8)      0.4225         0.042626   
    144. D(N  35,C   9,C   7,H   8)    179.1853         0.042626   
    145. D(C  10,C   9,C   7,C   2)   -179.6438         0.042626   
    146. D(H  11,C  10,C   9,N  35)     58.6753         0.012608   
    147. D(H  11,C  10,C   9,C   7)   -122.7637         0.012608   
    148. D(H  12,C  10,C   9,C   7)    117.2466         0.012608   
    149. D(H  12,C  10,C   9,N  35)    -61.3144         0.012608   
    150. D(H  13,C  10,C   9,C   7)     -2.7935         0.012608   
    151. D(C  18,C  16,C  14,N  37)      0.3086         0.029435   
    152. D(C  18,C  16,C  14,H  15)   -179.7343         0.029435   
    153. D(H  17,C  16,C  14,N  37)   -179.7585         0.029435   
    154. D(H  17,C  16,C  14,H  15)      0.1987         0.029435   
    155. D(C  20,C  18,C  16,H  17)    179.8196         0.031549   
    156. D(C  20,C  18,C  16,C  14)     -0.2474         0.031549   
    157. D(H  19,C  18,C  16,C  14)    179.6658         0.031549   
    158. D(H  19,C  18,C  16,H  17)     -0.2672         0.031549   
    159. D(C  23,C  20,C  18,H  19)    179.7916         0.026577   
    160. D(C  21,C  20,C  18,C  16)   -179.3274         0.026577   
    161. D(C  23,C  20,C  18,C  16)     -0.2951         0.026577   
    162. D(C  21,C  20,C  18,H  19)      0.7593         0.026577   
    163. D(H  22,C  21,C  20,C  18)     -1.1517         0.021765   
    164. D(C  26,C  21,C  20,C  23)     -0.0388         0.021765   
    165. D(C  26,C  21,C  20,C  18)    178.9772         0.021765   
    166. D(H  22,C  21,C  20,C  23)    179.8323         0.021765   
    167. D(N  37,C  23,C  20,C  21)    179.9436         0.026539   
    168. D(C  24,C  23,C  20,C  21)     -0.4881         0.026539   
    169. D(C  24,C  23,C  20,C  18)   -179.5687         0.026539   
    170. D(N  37,C  23,C  20,C  18)      0.8630         0.026539   
    171. D(N  36,C  24,C  23,N  37)      1.4169         0.020134   
    172. D(N  36,C  24,C  23,C  20)   -178.1828         0.020134   
    173. D(C  25,C  24,C  23,N  37)    179.5083         0.020134   
    174. D(C  25,C  24,C  23,C  20)     -0.0914         0.020134   
    175. D(C  28,C  25,C  24,N  36)     -3.0036         0.026022   
    176. D(C  28,C  25,C  24,C  23)    179.0131         0.026022   
    177. D(C  26,C  25,C  24,N  36)    179.0836         0.026022   
    178. D(C  26,C  25,C  24,C  23)      1.1003         0.026022   
    179. D(H  27,C  26,C  25,C  28)      0.6316         0.015749   
    180. D(H  27,C  26,C  25,C  24)    178.3355         0.015749   
    181. D(C  21,C  26,C  25,C  28)   -179.3483         0.015749   
    182. D(H  27,C  26,C  21,C  20)   -178.8544         0.050342   
    183. D(C  25,C  26,C  21,H  22)   -178.7457         0.050342   
    184. D(C  25,C  26,C  21,C  20)      1.1255         0.050342   
    185. D(C  21,C  26,C  25,C  24)     -1.6444         0.015749   
    186. D(H  27,C  26,C  21,H  22)      1.2744         0.050342   
    187. D(C  30,C  28,C  25,C  26)    179.6030         0.027860   
    188. D(H  29,C  28,C  25,C  26)     -0.3164         0.027860   
    189. D(C  30,C  28,C  25,C  24)      1.8966         0.027860   
    190. D(H  29,C  28,C  25,C  24)   -178.0228         0.027860   
    191. D(C  32,C  30,C  28,H  29)   -179.7917         0.032672   
    192. D(C  32,C  30,C  28,C  25)      0.2889         0.032672   
    193. D(H  31,C  30,C  28,H  29)      0.2301         0.032672   
    194. D(H  31,C  30,C  28,C  25)   -179.6893         0.032672   
    195. D(N  35,C  32,C  30,C  28)    178.4647         0.026316   
    196. D(N  36,C  32,C  30,H  31)    178.3515         0.026316   
    197. D(N  36,C  32,C  30,C  28)     -1.6266         0.026316   
    198. D(N  35,C  32,C  30,H  31)     -1.5571         0.026316   
    199. D(N  35,N  34,Mn 33,N  37)     -4.5477         0.001853   
    200. D(C   2,N  34,Mn 33,N  39)     61.4113         0.001853   
    201. D(C   2,N  34,Mn 33,N  38)    -46.2593         0.001853   
    202. D(C   2,N  34,Mn 33,N  37)   -175.9283         0.001853   
    203. D(C   2,N  34,Mn 33,N  36)   -175.0327         0.001853   
    204. D(N  35,N  34,C   2,C   7)     -0.6914         0.039958   
    205. D(N  35,N  34,C   2,C   3)    179.9249         0.039958   
    206. D(N  35,N  34,Mn 33,N  36)     -3.6521         0.001853   
    207. D(Mn 33,N  34,C   2,C   7)    171.3516         0.039958   
    208. D(Mn 33,N  34,C   2,C   3)     -8.0320         0.039958   
    209. D(C  32,N  35,N  34,Mn 33)      6.7821         0.026821   
    210. D(C   9,N  35,N  34,Mn 33)   -173.7534         0.026821   
    211. D(C   9,N  35,N  34,C   2)      0.1392         0.026821   
    212. D(N  34,N  35,C  32,N  36)     -6.4646         0.023192   
    213. D(N  34,N  35,C  32,C  30)    173.4514         0.023192   
    214. D(C   9,N  35,C  32,N  36)    174.2290         0.023192   
    215. D(C   9,N  35,C  32,C  30)     -5.8550         0.023192   
    216. D(N  34,N  35,C   9,C  10)    179.2961         0.028150   
    217. D(N  34,N  35,C   9,C   7)      0.4885         0.028150   
    218. D(C  32,N  35,N  34,C   2)   -179.3253         0.026821   
    219. D(C  32,N  35,C   9,C  10)     -1.3658         0.028150   
    220. D(C  32,N  35,C   9,C   7)    179.8266         0.028150   
    221. D(C  32,N  36,Mn 33,N  37)    179.5059         0.002007   
    222. D(C  32,N  36,Mn 33,N  34)      0.0674         0.002007   
    223. D(C  24,N  36,Mn 33,N  39)    -90.0424         0.002007   
    224. D(C  24,N  36,Mn 33,N  38)     94.3223         0.002007   
    225. D(C  24,N  36,Mn 33,N  37)      2.3165         0.002007   
    226. D(C  24,N  36,Mn 33,N  34)   -177.1219         0.002007   
    227. D(Mn 33,N  36,C  32,N  35)      3.3422         0.039808   
    228. D(Mn 33,N  36,C  32,C  30)   -176.5760         0.039808   
    229. D(C  24,N  36,C  32,N  35)   -179.4792         0.039808   
    230. D(C  24,N  36,C  32,C  30)      0.6026         0.039808   
    231. D(Mn 33,N  36,C  24,C  25)    179.0825         0.034510   
    232. D(Mn 33,N  36,C  24,C  23)     -2.8624         0.034510   
    233. D(C  32,N  36,C  24,C  25)      1.7901         0.034510   
    234. D(C  32,N  36,C  24,C  23)    179.8452         0.034510   
    235. D(C  23,N  37,Mn 33,N  36)     -1.4992         0.001745   
    236. D(C  23,N  37,Mn 33,N  34)     -0.6155         0.001745   
    237. D(C  14,N  37,Mn 33,N  39)    -57.6611         0.001745   
    238. D(C  14,N  37,Mn 33,N  38)     51.1263         0.001745   
    239. D(C  14,N  37,Mn 33,N  36)    179.6227         0.001745   
    240. D(C  14,N  37,Mn 33,N  34)   -179.4935         0.001745   
    241. D(Mn 33,N  37,C  23,C  24)      0.5952         0.035260   
    242. D(Mn 33,N  37,C  23,C  20)   -179.8237         0.035260   
    243. D(C  14,N  37,C  23,C  24)    179.6050         0.035260   
    244. D(C  14,N  37,C  23,C  20)     -0.8140         0.035260   
    245. D(Mn 33,N  37,C  14,C  16)    179.0738         0.041201   
    246. D(Mn 33,N  37,C  14,H  15)     -0.8832         0.041201   
    247. D(C  23,N  37,C  14,C  16)      0.2090         0.041201   
    248. D(C  23,N  37,C  14,H  15)   -179.7481         0.041201   
    249. D(C   1,N  38,Mn 33,N  39)    -64.7916         0.002604   
    250. D(C   1,N  38,Mn 33,N  37)   -170.6512         0.002604   
    251. D(C   1,N  38,Mn 33,N  36)    111.4749         0.002604   
    252. D(C   1,N  38,Mn 33,N  34)     37.5216         0.002604   
    253. D(C   0,N  39,Mn 33,N  38)    103.8854         0.002543   
    254. D(C   0,N  39,Mn 33,N  37)   -149.5385         0.002543   
    255. D(C   0,N  39,Mn 33,N  36)    -72.6554         0.002543   
    256. D(C   0,N  39,Mn 33,N  34)     -0.5028         0.002543   
    -----------------------------------------------------------------

Number of atoms                         .... 42
Number of degrees of freedom            .... 256


         *************************************************************
         *                GEOMETRY OPTIMIZATION CYCLE   1            *
         *************************************************************
---------------------------------
CARTESIAN COORDINATES (ANGSTROEM)
---------------------------------
  C      2.135300    7.681300    7.052700
  C     -0.251700    5.344600   10.849300
  C      3.834100    4.299400    9.274600
  C      3.787200    5.527200   10.077200
  H      3.256700    6.186300    9.623500
  H      4.678700    5.862700   10.200500
  H      3.397000    5.335700   10.933000
  C      4.786600    3.263200    9.261900
  H      5.552400    3.208200    9.786500
  C      4.381300    2.376800    8.352900
  C      5.047600    1.086700    7.965100
  H      5.231000    1.092700    7.023100
  H      4.466600    0.351900    8.173700
  H      5.870500    0.993200    8.450900
  C     -2.038000    5.338600    6.490000
  H     -2.089900    6.088300    7.038300
  C     -3.096100    5.081800    5.643500
  H     -3.834500    5.645900    5.624000
  C     -3.039600    3.978700    4.832400
  H     -3.742700    3.782800    4.257100
  C     -1.920500    3.151800    4.878100
  C     -1.759700    1.996800    4.071200
  H     -2.440300    1.757800    3.484100
  C     -0.902400    3.506600    5.759200
  C      0.273800    2.700500    5.842000
  C      0.412000    1.560300    5.050400
  C     -0.680100    1.253000    4.129500
  H     -0.607600    0.512200    3.571100
  C      1.593300    0.846200    5.177100
  H      1.732800    0.096500    4.645700
  C      2.557400    1.224800    6.067600
  H      3.350100    0.745300    6.146200
  C      2.318900    2.350100    6.854100
  Mn     0.876400    4.890700    7.885700
  N      2.860200    4.035100    8.406900
  N      3.197400    2.838600    7.828200
  N      1.207700    3.074600    6.740900
  N     -0.950900    4.581500    6.568600
  N      0.044900    5.150100    9.746800
  N      1.495600    6.768300    7.297700
  S     -0.671000    5.641500   12.367500
  S      3.038400    8.994900    6.726600

----------------------------
CARTESIAN COORDINATES (A.U.)
----------------------------
  NO LB      ZA    FRAG     MASS         X           Y           Z
   0 C     6.0000    0    12.011    4.035132   14.515553   13.327672
   1 C     6.0000    0    12.011   -0.475644   10.099830   20.502206
   2 C     6.0000    0    12.011    7.245399    8.124689   17.526454
   3 C     6.0000    0    12.011    7.156771   10.444894   19.043148
   4 H     1.0000    0     1.008    6.154271   11.690413   18.185779
   5 H     1.0000    0     1.008    8.841462   11.078897   19.276151
   6 H     1.0000    0     1.008    6.419400   10.083012   20.660376
   7 C     6.0000    0    12.011    9.045363    6.166554   17.502454
   8 H     1.0000    0     1.008   10.492515    6.062619   18.493805
   9 C     6.0000    0    12.011    8.279457    4.491501   15.784693
  10 C     6.0000    0    12.011    9.538582    2.053565   15.051858
  11 H     1.0000    0     1.008    9.885157    2.064904   13.271736
  12 H     1.0000    0     1.008    8.440651    0.664995   15.446055
  13 H     1.0000    0     1.008   11.093637    1.876876   15.969887
  14 C     6.0000    0    12.011   -3.851262   10.088492   12.264323
  15 H     1.0000    0     1.008   -3.949339   11.505220   13.300459
  16 C     6.0000    0    12.011   -5.850781    9.603210   10.664669
  17 H     1.0000    0     1.008   -7.246155   10.669205   10.627820
  18 C     6.0000    0    12.011   -5.744012    7.518653    9.131913
  19 H     1.0000    0     1.008   -7.072678    7.148456    8.044753
  20 C     6.0000    0    12.011   -3.629219    5.956039    9.218273
  21 C     6.0000    0    12.011   -3.325351    3.773405    7.693453
  22 H     1.0000    0     1.008   -4.611499    3.321761    6.583995
  23 C     6.0000    0    12.011   -1.705289    6.626514   10.883311
  24 C     6.0000    0    12.011    0.517407    5.103205   11.039780
  25 C     6.0000    0    12.011    0.778567    2.948540    9.543873
  26 C     6.0000    0    12.011   -1.285203    2.367827    7.803624
  27 H     1.0000    0     1.008   -1.148198    0.967918    6.748401
  28 C     6.0000    0    12.011    3.010901    1.599086    9.783301
  29 H     1.0000    0     1.008    3.274517    0.182359    8.779101
  30 C     6.0000    0    12.011    4.832786    2.314537   11.466102
  31 H     1.0000    0     1.008    6.330772    1.408413   11.614635
  32 C     6.0000    0    12.011    4.382086    4.441045   12.952372
  33 Mn   25.0000    0    54.940    1.656156    9.242084   14.901813
  34 N     7.0000    0    14.007    5.404995    7.625234   15.886739
  35 N     7.0000    0    14.007    6.042210    5.364177   14.793154
  36 N     7.0000    0    14.007    2.282222    5.810152   12.738455
  37 N     7.0000    0    14.007   -1.796941    8.657780   12.412855
  38 N     7.0000    0    14.007    0.084849    9.732279   18.418783
  39 N     7.0000    0    14.007    2.826274   12.790233   13.790654
  40 S    16.0000    0    32.060   -1.268006   10.660890   23.371188
  41 S    16.0000    0    32.060    5.741744   16.997898   12.711432

--------------------------------
INTERNAL COORDINATES (ANGSTROEM)
--------------------------------
 C      0   0   0     0.000000000000     0.00000000     0.00000000
 C      1   0   0     5.056887130439     0.00000000     0.00000000
 C      1   2   0     4.388622638141    56.39434407     0.00000000
 C      3   1   2     1.467603219539    67.65491036   288.89911840
 H      4   3   1     0.960045181228   109.48539772    11.18104863
 H      4   3   1     0.960487058736   109.43694285   251.16240065
 H      4   3   1     0.959855160949   109.49191147   131.22867260
 C      3   1   2     1.407525481119   145.55744438   159.93927319
 H      8   3   1     0.929881605367   126.56700938   110.44464013
 C      8   3   1     1.332761812928   106.85712077   290.51097705
 C     10   8   3     1.502898047108   127.74020025   180.35618126
 H     11  10   8     0.959705975807   109.42851690   237.23631061
 H     11  10   8     0.959690575133   109.43657864   117.24658010
 H     11  10   8     0.960160559490   109.45107333   357.20654320
 C      2   1   3     4.711093310475    58.99268387   242.54237872
 H     15   2   1     0.930256195894    58.31380648   283.81328314
 C     15   2   1     1.379160650541   149.21387184   191.47433934
 H     17  15   2     0.929421120913   120.62321124    74.49696358
 C     17  15   2     1.370366764775   118.78603738   254.56399864
 H     19  17  15     0.929352737124   120.32369819   179.66575599
 C     19  17  15     1.392205771429   119.46045048   359.75257888
 C     21  19  17     1.418086474796   123.79541533   180.67258504
 H     22  21  19     0.930066540630   119.04535467   358.84828741
 C     21  19  17     1.392389263101   117.20521807   359.70485894
 C     24  21  19     1.428320513750   119.66957915   180.43128354
 C     25  24  21     1.394914276936   120.66401011   359.90864738
 C     22  21  19     1.312316078542   121.98106863   178.97723185
 H     27  22  21     0.930511391655   119.25299420   181.14557381
 C     26  25  24     1.386167879443   116.97829794   179.01310656
 H     29  26  25     0.929460219697   119.41783063   181.97721962
 C     29  26  25     1.365949127896   121.21801038     1.89656671
 H     31  29  26     0.929769595115   120.92576879   180.31071646
 C     31  29  26     1.393472134633   118.09826962     0.28887844
 Mn    25  24  21     3.055619820920    78.26677716   179.99144945
 N      3   1   2     1.330879029063    62.59262982    74.10759899
 N     35   3   1     1.371207416841   105.57454534   142.39987464
 N     33  31  29     1.331345158101   122.29791165   358.37338028
 N     15   2   1     1.327088836514    68.61219392    70.49656356
 N      2   1   3     1.158148548330    40.71293170   287.80509173
 N      1   2   3     1.141407065862    37.31487848    82.26625759
 S      2   1   3     1.602776759253   138.50820537   108.93197696
 S      1   2   3     1.627106566885   141.76798147   261.74678124

---------------------------
INTERNAL COORDINATES (A.U.)
---------------------------
 C      0   0   0     0.000000000000     0.00000000     0.00000000
 C      1   0   0     9.556131766681     0.00000000     0.00000000
 C      1   2   0     8.293294891213    56.39434407     0.00000000
 C      3   1   2     2.773368158189    67.65491036   288.89911840
 H      4   3   1     1.814222468713   109.48539772    11.18104863
 H      4   3   1     1.815057496187   109.43694285   251.16240065
 H      4   3   1     1.813863382424   109.49191147   131.22867260
 C      3   1   2     2.659837685831   145.55744438   159.93927319
 H      8   3   1     1.757221571115   126.56700938   110.44464013
 C      8   3   1     2.518554828183   106.85712077   290.51097705
 C     10   8   3     2.840065716239   127.74020025   180.35618126
 H     11  10   8     1.813581463363   109.42851690   237.23631061
 H     11  10   8     1.813552360308   109.43657864   117.24658010
 H     11  10   8     1.814440502029   109.45107333   357.20654320
 C      2   1   3     8.902676148146    58.99268387   242.54237872
 H     15   2   1     1.757929444624    58.31380648   283.81328314
 C     15   2   1     2.606235924203   149.21387184   191.47433934
 H     17  15   2     1.756351381609   120.62321124    74.49696358
 C     17  15   2     2.589617888453   118.78603738   254.56399864
 H     19  17  15     1.756222154975   120.32369819   179.66575599
 C     19  17  15     2.630887630065   119.46045048   359.75257888
 C     21  19  17     2.679795071583   123.79541533   180.67258504
 H     22  21  19     1.757571048115   119.04535467   358.84828741
 C     21  19  17     2.631234379074   117.20521807   359.70485894
 C     24  21  19     2.699134602450   119.66957915   180.43128354
 C     25  24  21     2.636005963706   120.66401011   359.90864738
 C     22  21  19     2.479917989586   121.98106863   178.97723185
 H     27  22  21     1.758411694722   119.25299420   181.14557381
 C     26  25  24     2.619477667786   116.97829794   179.01310656
 H     29  26  25     1.756425267602   119.41783063   181.97721962
 C     29  26  25     2.581269764592   121.21801038     1.89656671
 H     31  29  26     1.757009902414   120.92576879   180.31071646
 C     31  29  26     2.633280709708   118.09826962     0.28887844
 Mn    25  24  21     5.774284630921    78.26677716   179.99144945
 N      3   1   2     2.514996882308    62.59262982    74.10759899
 N     35   3   1     2.591206490631   105.57454534   142.39987464
 N     33  31  29     2.515877738534   122.29791165   358.37338028
 N     15   2   1     2.507834456396    68.61219392    70.49656356
 N      2   1   3     2.188583578743    40.71293170   287.80509173
 N      1   2   3     2.156946761802    37.31487848    82.26625759
 S      2   1   3     3.028809128801   138.50820537   108.93197696
 S      1   2   3     3.074785802117   141.76798147   261.74678124

---------------------
BASIS SET INFORMATION
---------------------
There are 5 groups of distinct atoms

 Group   1 Type C   : 11s6p2d1f contracted to 5s3p2d1f pattern {62111/411/11/1}
 Group   2 Type H   : 5s1p contracted to 3s1p pattern {311/1}
 Group   3 Type Mn  : 17s11p7d1f contracted to 6s4p4d1f pattern {842111/6311/4111/1}
 Group   4 Type N   : 11s6p2d1f contracted to 5s3p2d1f pattern {62111/411/11/1}
 Group   5 Type S   : 14s9p3d1f contracted to 5s5p2d1f pattern {73211/51111/21/1}

Atom   0C    basis set group =>   1
Atom   1C    basis set group =>   1
Atom   2C    basis set group =>   1
Atom   3C    basis set group =>   1
Atom   4H    basis set group =>   2
Atom   5H    basis set group =>   2
Atom   6H    basis set group =>   2
Atom   7C    basis set group =>   1
Atom   8H    basis set group =>   2
Atom   9C    basis set group =>   1
Atom  10C    basis set group =>   1
Atom  11H    basis set group =>   2
Atom  12H    basis set group =>   2
Atom  13H    basis set group =>   2
Atom  14C    basis set group =>   1
Atom  15H    basis set group =>   2
Atom  16C    basis set group =>   1
Atom  17H    basis set group =>   2
Atom  18C    basis set group =>   1
Atom  19H    basis set group =>   2
Atom  20C    basis set group =>   1
Atom  21C    basis set group =>   1
Atom  22H    basis set group =>   2
Atom  23C    basis set group =>   1
Atom  24C    basis set group =>   1
Atom  25C    basis set group =>   1
Atom  26C    basis set group =>   1
Atom  27H    basis set group =>   2
Atom  28C    basis set group =>   1
Atom  29H    basis set group =>   2
Atom  30C    basis set group =>   1
Atom  31H    basis set group =>   2
Atom  32C    basis set group =>   1
Atom  33Mn   basis set group =>   3
Atom  34N    basis set group =>   4
Atom  35N    basis set group =>   4
Atom  36N    basis set group =>   4
Atom  37N    basis set group =>   4
Atom  38N    basis set group =>   4
Atom  39N    basis set group =>   4
Atom  40S    basis set group =>   5
Atom  41S    basis set group =>   5
---------------------------------
AUXILIARY/J BASIS SET INFORMATION
---------------------------------
There are 5 groups of distinct atoms

 Group   1 Type C   : 12s5p4d2f1g contracted to 6s4p3d1f1g pattern {711111/2111/211/2/1}
 Group   2 Type H   : 5s2p1d contracted to 3s1p1d pattern {311/2/1}
 Group   3 Type Mn  : 19s5p5d3f3g contracted to 8s5p5d2f3g pattern {121111111/11111/11111/21/111}
 Group   4 Type N   : 12s5p4d2f1g contracted to 6s4p3d1f1g pattern {711111/2111/211/2/1}
 Group   5 Type S   : 14s5p5d2f1g contracted to 8s4p3d1f1g pattern {71111111/2111/311/2/1}

Atom   0C    basis set group =>   1
Atom   1C    basis set group =>   1
Atom   2C    basis set group =>   1
Atom   3C    basis set group =>   1
Atom   4H    basis set group =>   2
Atom   5H    basis set group =>   2
Atom   6H    basis set group =>   2
Atom   7C    basis set group =>   1
Atom   8H    basis set group =>   2
Atom   9C    basis set group =>   1
Atom  10C    basis set group =>   1
Atom  11H    basis set group =>   2
Atom  12H    basis set group =>   2
Atom  13H    basis set group =>   2
Atom  14C    basis set group =>   1
Atom  15H    basis set group =>   2
Atom  16C    basis set group =>   1
Atom  17H    basis set group =>   2
Atom  18C    basis set group =>   1
Atom  19H    basis set group =>   2
Atom  20C    basis set group =>   1
Atom  21C    basis set group =>   1
Atom  22H    basis set group =>   2
Atom  23C    basis set group =>   1
Atom  24C    basis set group =>   1
Atom  25C    basis set group =>   1
Atom  26C    basis set group =>   1
Atom  27H    basis set group =>   2
Atom  28C    basis set group =>   1
Atom  29H    basis set group =>   2
Atom  30C    basis set group =>   1
Atom  31H    basis set group =>   2
Atom  32C    basis set group =>   1
Atom  33Mn   basis set group =>   3
Atom  34N    basis set group =>   4
Atom  35N    basis set group =>   4
Atom  36N    basis set group =>   4
Atom  37N    basis set group =>   4
Atom  38N    basis set group =>   4
Atom  39N    basis set group =>   4
Atom  40S    basis set group =>   5
Atom  41S    basis set group =>   5


           ************************************************************
           *        Program running with 16 parallel MPI-processes    *
           *              working on a common directory               *
           ************************************************************
------------------------------------------------------------------------------
                             ORCA STARTUP CALCULATIONS
                           -- RI-GTO INTEGRALS CHOSEN --
------------------------------------------------------------------------------
------------------------------------------------------------------------------
                   ___                                                        
                  /   \      - P O W E R E D   B Y -                         
                 /     \                                                     
                 |  |  |   _    _      __       _____    __    __             
                 |  |  |  | |  | |    /  \     |  _  \  |  |  /  |          
                  \  \/   | |  | |   /    \    | | | |  |  | /  /          
                 / \  \   | |__| |  /  /\  \   | |_| |  |  |/  /          
                |  |  |   |  __  | /  /__\  \  |    /   |      \           
                |  |  |   | |  | | |   __   |  |    \   |  |\   \          
                \     /   | |  | | |  |  |  |  | |\  \  |  | \   \       
                 \___/    |_|  |_| |__|  |__|  |_| \__\ |__|  \__/        
                                                                              
                      - O R C A' S   B I G   F R I E N D -                    
                                      &                                       
                       - I N T E G R A L  F E E D E R -                       
                                                                              
 v1 FN, 2020, v2 2021, v3 2022-2024                                           
------------------------------------------------------------------------------


----------------------
SHARK INTEGRAL PACKAGE
----------------------

Number of atoms                             ...     42
Number of basis functions                   ...    978
Number of shells                            ...    372
Maximum angular momentum                    ...      3
Integral batch strategy                     ... SHARK/LIBINT Hybrid
RI-J (if used) integral strategy            ... SPLIT-RIJ (Revised 2003 algorithm where possible)
Printlevel                                  ...      1
Contraction scheme used                     ... SEGMENTED contraction
Prescreening option                         ... SCHWARTZ
   Thresh                                   ... 2.500e-11
   Tcut                                     ... 2.500e-12
   Tpresel                                  ... 2.500e-12 
Coulomb Range Separation                    ... NOT USED
Exchange Range Separation                   ... NOT USED
Multipole approximations                    ... NOT USED
Finite Nucleus Model                        ... NOT USED
CABS basis                                  ... NOT available
Auxiliary Coulomb fitting basis             ... AVAILABLE
   # of basis functions in Aux-J            ...   1570
   # of shells in Aux-J                     ...    502
   Maximum angular momentum in Aux-J        ...      4
Auxiliary J/K fitting basis                 ... NOT available
Auxiliary Correlation fitting basis         ... NOT available
Auxiliary 'external' fitting basis          ... NOT available

Checking pre-screening integrals            ... done (  0.0 sec) Dimension = 372
Check shell pair data                       ... done (  0.0 sec)
Shell pair information
Shell pair cut-off parameter TPreSel        ...   2.5e-12
Total number of shell pairs                 ...     69378
Shell pairs after pre-screening             ...     45614
Total number of primitive shell pairs       ...    228198
Primitive shell pairs kept                  ...     94319
          la=0 lb=0:  10498 shell pairs
          la=1 lb=0:  12946 shell pairs
          la=1 lb=1:   4007 shell pairs
          la=2 lb=0:   6760 shell pairs
          la=2 lb=1:   4218 shell pairs
          la=2 lb=2:   1159 shell pairs
          la=3 lb=0:   2943 shell pairs
          la=3 lb=1:   1894 shell pairs
          la=3 lb=2:    969 shell pairs
          la=3 lb=3:    220 shell pairs

Calculating one electron integrals          ... done (  0.1 sec)
done (  0.2 sec)
Calculating Nuclear repulsion               ... done (  0.0 sec) ENN=   3252.542596662258 Eh

Diagonalization of the overlap matrix:
Smallest eigenvalue                        ... 2.652e-06
Time for diagonalization                   ...    0.137 sec
Threshold for overlap eigenvalues          ... 1.000e-07
Number of eigenvalues below threshold      ... 0
Time for construction of square roots      ...    0.090 sec
Total time needed                          ...    0.245 sec

-------------------
DFT GRID GENERATION
-------------------

General Integration Accuracy     IntAcc      ... 4.959
Radial Grid Type                 RadialGrid  ... OptM3 with GC (2021)
Angular Grid (max. ang.)         AngularGrid ... 6 (Lebedev-590)
Angular grid pruning method      GridPruning ... 4 (adaptive)
Weight generation scheme         WeightScheme... mBecke (2022)
Basis function cutoff            BFCut       ... 1.0000e-11
Integration weight cutoff        WCut        ... 1.0000e-14
Partially contracted basis set               ... off
Rotationally invariant grid construction     ... off
Angular grids for H and He will be reduced by one unit
Core-polarized basis detected: some atoms will have their core
                               angular grid increased.

Total number of grid points                  ...   532187
Total number of batches                      ...     8335
Average number of points per batch           ...       63
Average number of grid points per atom       ...    12671

--------------------
COSX GRID GENERATION
--------------------

GRIDX 1
-------
General Integration Accuracy     IntAcc      ... 4.020
Radial Grid Type                 RadialGrid  ... OptM3 with GC (2021)
Angular Grid (max. ang.)         AngularGrid ... 2 (Lebedev-110)
Angular grid pruning method      GridPruning ... 4 (adaptive)
Weight generation scheme         WeightScheme... mBecke (2022)
Basis function cutoff            BFCut       ... 1.0000e-11
Integration weight cutoff        WCut        ... 1.0000e-14
Partially contracted basis set               ... on
Rotationally invariant grid construction     ... off
Angular grids for H and He will be reduced by one unit
Core-polarized basis detected: some atoms will have their core
                               angular grid increased.

Total number of grid points                  ...    63316
Total number of batches                      ...      519
Average number of points per batch           ...      121
Average number of grid points per atom       ...     1508
UseSFitting                                  ... on

GRIDX 2
-------
General Integration Accuracy     IntAcc      ... 4.338
Radial Grid Type                 RadialGrid  ... OptM3 with GC (2021)
Angular Grid (max. ang.)         AngularGrid ... 3 (Lebedev-194)
Angular grid pruning method      GridPruning ... 4 (adaptive)
Weight generation scheme         WeightScheme... mBecke (2022)
Basis function cutoff            BFCut       ... 1.0000e-11
Integration weight cutoff        WCut        ... 1.0000e-14
Partially contracted basis set               ... on
Rotationally invariant grid construction     ... off
Angular grids for H and He will be reduced by one unit
Core-polarized basis detected: some atoms will have their core
                               angular grid increased.

Total number of grid points                  ...   133504
Total number of batches                      ...     1065
Average number of points per batch           ...      125
Average number of grid points per atom       ...     3179
UseSFitting                                  ... on

GRIDX 3
-------
General Integration Accuracy     IntAcc      ... 4.871
Radial Grid Type                 RadialGrid  ... OptM3 with GC (2021)
Angular Grid (max. ang.)         AngularGrid ... 4 (Lebedev-302)
Angular grid pruning method      GridPruning ... 4 (adaptive)
Weight generation scheme         WeightScheme... mBecke (2022)
Basis function cutoff            BFCut       ... 1.0000e-11
Integration weight cutoff        WCut        ... 1.0000e-14
Partially contracted basis set               ... on
Rotationally invariant grid construction     ... off
Angular grids for H and He will be reduced by one unit
Core-polarized basis detected: some atoms will have their core
                               angular grid increased.

Total number of grid points                  ...   244862
Total number of batches                      ...     1936
Average number of points per batch           ...      126
Average number of grid points per atom       ...     5830
UseSFitting                                  ... on
Initializing property integral containers    ... done (  0.0 sec)

SHARK setup successfully completed in   8.9 seconds

Maximum memory used throughout the entire STARTUP-calculation: 166.5 MB


           ************************************************************
           *        Program running with 16 parallel MPI-processes    *
           *              working on a common directory               *
           ************************************************************
-------------------------------------------------------------------------------
                                 ORCA GUESS
                   Start orbitals & Density for SCF / CASSCF
-------------------------------------------------------------------------------

------------
SCF SETTINGS
------------
Hamiltonian:
 Density Functional     Method          .... DFT(GTOs)
 Exchange Functional    Exchange        .... PBE
   PBE kappa parameter   XKappa         ....  0.804000
   PBE mue parameter    XMuePBE         ....  0.219520
 Correlation Functional Correlation     .... PBE
   PBE beta parameter  CBetaPBE         ....  0.066725
 LDA part of GGA corr.  LDAOpt          .... PW91-LDA
 Gradients option       PostSCFGGA      .... off
 Hybrid DFT is turned on
   Fraction HF Exchange ScalHFX         ....  0.250000
   Scaling of DF-GGA-X  ScalDFX         ....  0.750000
   Scaling of DF-GGA-C  ScalDFC         ....  1.000000
   Scaling of DF-LDA-C  ScalLDAC        ....  1.000000
   Perturbative correction              ....  0.000000
   NL short-range parameter             ....  6.900000
 RI-approximation to the Coulomb term is turned on
   Number of AuxJ basis functions       .... 1570
   RIJ-COSX (HFX calculated with COS-X)).... on


General Settings:
 Integral files         IntName         .... OKUXUO-S6
 Hartree-Fock type      HFTyp           .... UHF
 Total Charge           Charge          ....    0
 Multiplicity           Mult            ....    2
 Number of Electrons    NEL             ....  227
 Basis Dimension        Dim             ....  978
 Nuclear Repulsion      ENuc            ....   3252.5425966623 Eh

Convergence Acceleration:
 AO-DIIS                CNVDIIS         .... on
   Start iteration      DIISMaxIt       ....    12
   Startup error        DIISStart       ....  0.200000
   # of expansion vecs  DIISMaxEq       ....     5
   Bias factor          DIISBfac        ....   1.050
   Max. coefficient     DIISMaxC        ....  10.000
 MO-DIIS                CNVKDIIS        .... off
 Trust-Rad. Augm. Hess. CNVTRAH         .... auto
   Auto Start mean grad. ratio tolernc. ....  1.125000
   Auto Start start iteration           ....    50
   Auto Start num. interpolation iter.  ....    10
   Max. Number of Micro iterations      ....    24
   Max. Number of Macro iterations      .... Maxiter - #DIIS iter
   Number of Davidson start vectors     ....     2
   Converg. threshold    (grad. norm)   ....   1.000e-05
   Grad. Scal. Fac. for Micro threshold ....   0.100
   Minimum threshold for Micro iter.    ....   1.000e-02
   NR start threshold (gradient norm)   ....   1.000e-04
   Initial trust radius                 ....   0.400
   Minimum AH scaling param. (alpha)    ....   1.000
   Maximum AH scaling param. (alpha)    .... 1000.000
   Quad. conv. algorithm                .... NR
   White noise on init. David. guess    .... on
   Maximum white noise                  ....   0.010
   Pseudo random numbers                .... off
   Inactive MOs                         .... canonical
   Orbital update algorithm             .... Taylor
   Preconditioner                       .... Diag
   Full preconditioner red. dimension   ....   250
 SOSCF                  CNVSOSCF        .... on
   Start iteration      SOSCFMaxIt      ....   150
   Startup grad/error   SOSCFStart      ....  0.003300
   Hessian update       SOSCFHessUp     .... L-BFGS
 Level Shifting         CNVShift        .... on
   Level shift para.    LevelShift      ....    0.2500
   Turn off err/grad.   ShiftErr        ....    0.0010
 Zerner damping         CNVZerner       .... off
 Static damping         CNVDamp         .... on
   Fraction old density DampFac         ....    0.7000
   Max. Damping (<1)    DampMax         ....    0.9800
   Min. Damping (>=0)   DampMin         ....    0.0000
   Turn off err/grad.   DampErr         ....    0.1000

SCF Procedure:
 Maximum # iterations   MaxIter         ....   125
 SCF integral mode      SCFMode         .... Direct
   Integral package                     .... SHARK and LIBINT hybrid scheme
 Reset frequency        DirectResetFreq ....    20
 Integral Threshold     Thresh          ....  2.500e-11 Eh
 Primitive CutOff       TCut            ....  2.500e-12 Eh

Convergence Tolerance:
 Convergence Check Mode ConvCheckMode   .... Total+1el-Energy
 Convergence forced     ConvForced      .... 0
 Energy Change          TolE            ....  1.000e-08 Eh
 1-El. energy change                    ....  1.000e-05 Eh
 Orbital Gradient       TolG            ....  1.000e-05
 Orbital Rotation angle TolX            ....  1.000e-05
 DIIS Error             TolErr          ....  5.000e-07

------------------------------
INITIAL GUESS: MODEL POTENTIAL
------------------------------
Loading Hartree-Fock densities                     ... done
Calculating cut-offs                               ... done
Initializing the effective Hamiltonian             ... done
Setting up the integral package (SHARK)            ... done
done (   0.3 sec)
Making the grid                                    ... done (   0.3 sec)
Mapping shells                                     ... done
Starting the XC term evaluation                    ... done (   0.2 sec)
  promolecular density results
     # of electrons  =    227.015946544
     EX              =   -241.495309322
     EC              =     -8.116103488
     EX+EC           =   -249.611412810
Transforming the Hamiltonian                       ... done (   0.1 sec)
done (   0.2 sec)
Back transforming the eigenvectors                 ... done (   0.1 sec)
done
                      ------------------
                      INITIAL GUESS DONE (   1.4 sec)
                      ------------------
             **** ENERGY FILE WAS UPDATED (OKUXUO-S6.en.tmp) ****
Finished Guess after   1.8 sec
Maximum memory used throughout the entire GUESS-calculation: 87.9 MB


           ************************************************************
           *        Program running with 16 parallel MPI-processes    *
           *              working on a common directory               *
           ************************************************************

-------------------------------------------------------------------------------------------
                                      ORCA LEAN-SCF
                              memory conserving SCF solver
-------------------------------------------------------------------------------------------

----------------------------------------D-I-I-S--------------------------------------------
Iteration    Energy (Eh)           Delta-E    RMSDP     MaxDP     DIISErr   Damp  Time(sec)
-------------------------------------------------------------------------------------------
               ***  Starting incremental Fock matrix formation  ***
    1    -3005.6827105153370212     0.00e+00  8.73e-04  1.36e-01  1.94e-01  0.700  21.4
Warning: op=0 Small HOMO/LUMO gap (  -0.453) - skipping pre-diagonalization
         LevelShift set to 0.553 Eh
         Will do a full diagonalization
    2    -3005.9125877267679243    -2.30e-01  5.79e-04  6.21e-02  1.62e-01  0.700  12.3
                               ***Turning on AO-DIIS***
    3    -3006.2416723763008122    -3.29e-01  2.95e-04  3.47e-02  2.73e-02  0.700  10.9
    4    -3006.3591792218330738    -1.18e-01  5.07e-04  5.62e-02  6.89e-02  0.000  10.3
    5    -3006.6034308465614231    -2.44e-01  2.10e-04  1.99e-02  1.49e-01  0.000  10.8
    6    -3006.6940315049332639    -9.06e-02  9.15e-05  1.07e-02  1.07e-01  0.700  10.1
    7    -3006.7327811565701268    -3.87e-02  8.94e-05  1.09e-02  7.68e-02  0.700   9.6
    8    -3006.7611091569297059    -2.83e-02  2.49e-04  3.40e-02  5.16e-02  0.000   9.6
    9    -3006.8020279976080928    -4.09e-02  8.17e-05  9.64e-03  1.45e-02  0.000  10.5
   10    -3006.8071860582813315    -5.16e-03  6.26e-05  7.19e-03  8.04e-03  0.000   9.7
   11    -3006.8105133633407604    -3.33e-03  6.07e-05  6.89e-03  5.18e-03  0.000   9.4
   12    -3006.8134107418791245    -2.90e-03  4.13e-05  4.82e-03  3.53e-03  0.000   9.5
   13    -3006.8154607095557367    -2.05e-03  3.61e-05  5.06e-03  3.97e-03  0.000   9.3
   14    -3006.8167887758545476    -1.33e-03  3.83e-05  5.13e-03  4.56e-03  0.000   8.7
   15    -3006.8181350200693487    -1.35e-03  2.81e-05  4.19e-03  4.59e-03  0.000   9.3
   16    -3006.8191397040709489    -1.00e-03  2.56e-05  3.95e-03  4.64e-03  0.000   8.9
   17    -3006.8199709303080454    -8.31e-04  2.35e-05  4.05e-03  4.84e-03  0.000   8.7
   18    -3006.8207228415549253    -7.52e-04  2.16e-05  4.21e-03  5.18e-03  0.000   8.7
   19    -3006.8214116676999765    -6.89e-04  2.01e-05  4.30e-03  5.36e-03  0.000   8.5
   20    -3006.8220604066200394    -6.49e-04  1.63e-05  3.66e-03  5.71e-03  0.000   8.5
               *** Restarting incremental Fock matrix formation ***
                             ****Resetting DIIS****
Warning: op=0 Small HOMO/LUMO gap (   0.081) - skipping pre-diagonalization
         Will do a full diagonalization
   21    -3006.8226028513890924    -5.42e-04  1.01e-04  1.56e-02  6.11e-03  0.000  13.9
   22    -3006.8250082096319602    -2.41e-03  3.94e-06  9.87e-04  8.74e-03  0.000   9.4
   23    -3006.8251542189464089    -1.46e-04  2.27e-07  2.38e-05  8.81e-03  0.000   6.8
   24    -3006.8251513123022960     2.91e-06  3.21e-08  2.37e-06  8.82e-03  0.000   5.1
   25    -3006.8251511163334726     1.96e-07  2.03e-08  1.46e-06  8.82e-03  0.000   4.2
               *** Restarting incremental Fock matrix formation ***
                             ****Resetting DIIS****
Warning: op=0 Small HOMO/LUMO gap (   0.078) - skipping pre-diagonalization
         Will do a full diagonalization
   26    -3006.8251696893476037    -1.86e-05  9.87e-05  1.98e-02  8.82e-03  0.000  22.5
   27    -3006.8280737595641767    -2.90e-03  1.60e-05  3.67e-03  9.88e-03  0.000   9.0
   28    -3006.8287425218486533    -6.69e-04  2.41e-05  6.70e-03  1.03e-02  0.000   8.0
   29    -3006.8276887656265899     1.05e-03  1.54e-05  4.04e-03  1.00e-02  0.000   7.5
   30    -3006.8270586908001860     6.30e-04  2.86e-05  7.43e-03  9.76e-03  0.000   7.7
   31    -3006.8259315890991275     1.13e-03  3.15e-05  7.22e-03  9.20e-03  0.000   7.8
   32    -3006.8249675709957955     9.64e-04  7.42e-05  1.72e-02  8.63e-03  0.000   8.7
   33    -3006.8227931124120005     2.17e-03  4.28e-05  5.48e-03  6.25e-03  0.000   8.8
   34    -3006.8224142003373345     3.79e-04  8.57e-05  1.75e-02  6.61e-03  0.000   8.8
                              *** Initializing SOSCF ***
---------------------------------------S-O-S-C-F--------------------------------------
Iteration    Energy (Eh)           Delta-E    RMSDP     MaxDP     MaxGrad    Time(sec)
--------------------------------------------------------------------------------------
   35    -3006.8215378364329808     8.76e-04  3.35e-05  5.46e-03  2.49e-03     9.8
               *** Restarting incremental Fock matrix formation ***
   36    -3006.8217075492748336    -1.70e-04  3.07e-05  4.68e-03  3.10e-03    20.7
   37    -3006.8219600449529025    -2.52e-04  1.60e-04  3.00e-02  3.32e-03    14.0
               *** Scaled step length from 1.147809 to 0.200000 ***
Curvature condition for BFGS not met. Restarting diagonal Hessian.
   38    -3006.8241690105405723    -2.21e-03  9.05e-04  9.65e-02  4.84e-03    16.5
   39    -3006.8183509505261100     5.82e-03  8.22e-04  9.10e-02  1.71e-02    18.0
   40    -3006.8234968415044932    -5.15e-03  6.35e-04  7.08e-02  5.94e-03    18.0
   41    -3006.8250080308662291    -1.51e-03  3.54e-04  3.87e-02  7.95e-03    17.6
               *** Scaled step length from 0.247171 to 0.200000 ***
   42    -3006.8280924064547435    -3.08e-03  6.20e-04  6.96e-02  5.95e-03    16.9
               *** Scaled step length from 0.667385 to 0.200000 ***
   43    -3006.8327529100106403    -4.66e-03  3.16e-04  3.43e-02  7.87e-03    17.8
               *** Scaled step length from 0.832625 to 0.200000 ***
   44    -3006.8377986686709846    -5.05e-03  1.70e-04  3.68e-02  7.21e-03    16.6
               *** Scaled step length from 0.341541 to 0.200000 ***
   45    -3006.8424405327550630    -4.64e-03  2.54e-04  3.47e-02  7.38e-03    16.0
   46    -3006.8475474818405928    -5.11e-03  5.42e-04  5.13e-02  7.29e-03    16.7
   47    -3006.8516214468754697    -4.07e-03  3.01e-04  2.78e-02  5.09e-03    17.3
   48    -3006.8538300964892187    -2.21e-03  1.24e-04  1.06e-02  4.75e-03    17.1
   49    -3006.8552492320577585    -1.42e-03  2.10e-04  1.92e-02  2.59e-03    16.1
   50    -3006.8556038728665953    -3.55e-04  2.57e-05  1.78e-03  2.29e-03    16.6
   51    -3006.8559353964428738    -3.32e-04  2.77e-05  2.22e-03  7.00e-04    14.7
   52    -3006.8559754321622677    -4.00e-05  1.04e-05  1.76e-03  5.22e-04    14.6
   53    -3006.8560297193798760    -5.43e-05  1.40e-05  2.16e-03  4.14e-04    12.9
   54    -3006.8560502588579766    -2.05e-05  1.48e-05  2.11e-03  5.34e-04    12.9
   55    -3006.8560769053019612    -2.66e-05  2.66e-05  4.07e-03  7.16e-04    12.9
               *** Restarting incremental Fock matrix formation ***
   56    -3006.8561245219689226    -4.76e-05  6.58e-05  1.02e-02  8.20e-04    21.4
   57    -3006.8561976769306057    -7.32e-05  3.88e-05  6.32e-03  8.23e-04    14.4

       ******************************************************************************
       ***                                                                        ***
       ***                               Auto-TRAH                                ***
       ***                               ---------                                ***
       *** the maximum gradient error decreased on average only by a factor   1.1 ***
       *** during the last  10 iterations                                         ***
       ***                                                                        ***
       ***               Leaving SCF to start the TRAH-SCF procedure              ***
       ***                                                                        ***
       ******************************************************************************

 --------------------------------------------------------------------------------------------
   Iter.        energy            ||Error||_2        Shift      TRadius  Mac/Mic        Rej.
 --------------------------------------------------------------------------------------------
    0      -3006.856267595254     3.458510e-03                     0.400 (TRAH MAcro)   No
    0     dE    -9.440233e-06     1.931002e-03    -9.4401e-06      0.004 (TRAH MIcro)
    0     dE    -2.438020e-05     3.431403e-03    -2.4373e-05      0.017 (TRAH MIcro)
    0     dE    -3.813853e-05     2.902398e-03    -3.8103e-05      0.030 (TRAH MIcro)
    0     dE    -5.267401e-05     3.799006e-03    -5.2566e-05      0.045 (TRAH MIcro)
    0     dE    -8.714474e-05     4.229806e-03    -8.6527e-05      0.084 (TRAH MIcro)
    0     dE    -1.112725e-04     4.184877e-03    -1.0987e-04      0.113 (TRAH MIcro)
    0     dE    -1.529996e-04     5.578323e-03    -1.4900e-04      0.164 (TRAH MIcro)
    0     dE    -1.792247e-04     3.999424e-03    -1.7261e-04      0.196 (TRAH MIcro)
    0     dE    -2.069699e-04     4.291309e-03    -1.9659e-04      0.230 (TRAH MIcro)
    0     dE    -2.289757e-04     4.962795e-03    -2.1483e-04      0.257 (TRAH MIcro)
    0     dE    -2.652799e-04     5.165082e-03    -2.4333e-04      0.300 (TRAH MIcro)
    0     dE    -3.116573e-04     7.313712e-03    -2.7692e-04      0.354 (TRAH MIcro)
    0     dE    -3.785946e-04     5.700992e-03    -4.8928e-04      0.400 (TRAH MIcro)
    0     dE    -4.005826e-04     2.970216e-03    -6.5514e-04      0.400 (TRAH MIcro)
    0     dE    -4.114561e-04     2.401532e-03    -7.3330e-04      0.400 (TRAH MIcro)
    0     dE    -4.188646e-04     2.216686e-03    -7.9022e-04      0.400 (TRAH MIcro)
    0     dE    -4.271638e-04     2.659385e-03    -8.5586e-04      0.400 (TRAH MIcro)
    0     dE    -4.375285e-04     2.748562e-03    -9.4049e-04      0.400 (TRAH MIcro)
    0     dE    -4.437495e-04     1.607296e-03    -9.9246e-04      0.400 (TRAH MIcro)
    0     dE    -4.338098e-04     1.081602e-03    -1.0724e-03      0.385 (TRAH MIcro)
    0     dE    -4.362789e-04     7.020267e-04    -1.0751e-03      0.387 (TRAH MIcro)
    0     dE    -4.373680e-04     5.678932e-04    -1.0763e-03      0.387 (TRAH MIcro)
    0     dE    -4.383766e-04     5.445613e-04    -1.0774e-03      0.388 (TRAH MIcro)
    1      -3006.856623784045     1.142987e-02                     0.480 (TRAH MAcro)   No
    1     dE    -4.896337e-05     2.207373e-03    -4.8957e-05      0.011 (TRAH MIcro)
    1     dE    -5.240080e-05     2.103914e-03    -5.2392e-05      0.013 (TRAH MIcro)
    1     dE    -5.810853e-05     2.012362e-03    -5.8087e-05      0.019 (TRAH MIcro)
    1     dE    -6.122335e-05     1.937978e-03    -6.1191e-05      0.023 (TRAH MIcro)
    1     dE    -6.567476e-05     1.973174e-03    -6.5618e-05      0.030 (TRAH MIcro)
    1     dE    -7.109810e-05     2.084214e-03    -7.0992e-05      0.039 (TRAH MIcro)
    1     dE    -7.597162e-05     1.948876e-03    -7.5796e-05      0.048 (TRAH MIcro)
    1     dE    -8.092127e-05     1.745320e-03    -8.0640e-05      0.059 (TRAH MIcro)
    1     dE    -8.452867e-05     1.538953e-03    -8.4142e-05      0.068 (TRAH MIcro)
    1     dE    -8.826750e-05     1.832414e-03    -8.7743e-05      0.077 (TRAH MIcro)
    1     dE    -9.231082e-05     2.035427e-03    -9.1599e-05      0.088 (TRAH MIcro)
    1     dE    -9.742314e-05     1.915664e-03    -9.6409e-05      0.103 (TRAH MIcro)
    1     dE    -1.045166e-04     2.928684e-03    -1.0295e-04      0.123 (TRAH MIcro)
    1     dE    -1.123021e-04     2.623338e-03    -1.0992e-04      0.147 (TRAH MIcro)
    1     dE    -1.172257e-04     1.192810e-03    -1.1421e-04      0.162 (TRAH MIcro)
    1     dE    -1.185803e-04     9.455960e-04    -1.1538e-04      0.167 (TRAH MIcro)
    2      -3006.856754652494     2.377853e-03                     0.576 (TRAH MAcro)   No
    2     dE    -2.079091e-06     1.127723e-03    -2.0791e-06      0.002 (TRAH MIcro)
    2     dE    -3.270145e-06     1.017304e-03    -3.2701e-06      0.004 (TRAH MIcro)
    2     dE    -4.254867e-06     1.244321e-03    -4.2547e-06      0.006 (TRAH MIcro)
    2     dE    -5.817341e-06     1.086556e-03    -5.8166e-06      0.012 (TRAH MIcro)
    2     dE    -6.788726e-06     8.094946e-04    -6.7872e-06      0.015 (TRAH MIcro)
    2     dE    -7.645637e-06     8.101914e-04    -7.6431e-06      0.018 (TRAH MIcro)
    2     dE    -8.291449e-06     6.055705e-04    -8.2878e-06      0.021 (TRAH MIcro)
    2     dE    -8.777902e-06     6.348181e-04    -8.7731e-06      0.023 (TRAH MIcro)
    2     dE    -9.601608e-06     8.889407e-04    -9.5942e-06      0.028 (TRAH MIcro)
    2     dE    -1.044955e-05     7.950660e-04    -1.0438e-05      0.033 (TRAH MIcro)
    2     dE    -1.150512e-05     1.042223e-03    -1.1487e-05      0.040 (TRAH MIcro)
    2     dE    -1.303050e-05     1.209448e-03    -1.2998e-05      0.050 (TRAH MIcro)
    2     dE    -1.460917e-05     1.123564e-03    -1.4553e-05      0.062 (TRAH MIcro)
    2     dE    -1.597642e-05     9.652676e-04    -1.5893e-05      0.072 (TRAH MIcro)
    2     dE    -1.658625e-05     6.036981e-04    -1.6488e-05      0.077 (TRAH MIcro)
    2     dE    -1.694698e-05     5.183043e-04    -1.6839e-05      0.080 (TRAH MIcro)
    2     dE    -1.728848e-05     6.740527e-04    -1.7170e-05      0.083 (TRAH MIcro)
    2     dE    -1.790927e-05     7.118940e-04    -1.7771e-05      0.088 (TRAH MIcro)
    2     dE    -1.840517e-05     6.597401e-04    -1.8250e-05      0.092 (TRAH MIcro)
    2     dE    -1.879063e-05     5.019197e-04    -1.8620e-05      0.096 (TRAH MIcro)
    2     dE    -1.898507e-05     3.197043e-04    -1.8806e-05      0.097 (TRAH MIcro)
    2     dE    -1.907584e-05     2.503918e-04    -1.8893e-05      0.098 (TRAH MIcro)
    2     dE    -1.914159e-05     1.902319e-04    -1.8956e-05      0.099 (TRAH MIcro)
    3      -3006.856774281077     7.240916e-04                     0.691 (TRAH MAcro)   No
    3     dE    -1.861998e-07     2.316767e-04    -1.8620e-07      0.001 (TRAH MIcro)
    3     dE    -2.229841e-07     1.415025e-04    -2.2298e-07      0.001 (TRAH MIcro)
    3     dE    -2.369661e-07     1.287099e-04    -2.3697e-07      0.001 (TRAH MIcro)
    3     dE    -2.572232e-07     1.035082e-04    -2.5722e-07      0.001 (TRAH MIcro)
    3     dE    -2.656568e-07     7.963870e-05    -2.6566e-07      0.001 (TRAH MIcro)
    3     dE    -2.743781e-07     9.116399e-05    -2.7438e-07      0.002 (TRAH MIcro)
    3     dE    -2.837597e-07     9.745107e-05    -2.8376e-07      0.002 (TRAH MIcro)
    3     dE    -2.939621e-07     9.204616e-05    -2.9396e-07      0.002 (TRAH MIcro)
    3     dE    -3.032568e-07     9.141738e-05    -3.0325e-07      0.003 (TRAH MIcro)
    3     dE    -3.093762e-07     5.628722e-05    -3.0937e-07      0.003 (TRAH MIcro)
    4      -3006.856774585808     5.701111e-05                           (NR   MAcro)
    4     dE    -2.212173e-09     3.621775e-05                           (NR   MIcro)
    4     dE    -4.509975e-09     4.969563e-05                           (NR   MIcro)
    4     dE    -7.026044e-09     4.790353e-05                           (NR   MIcro)
    4     dE    -1.029757e-08     5.349783e-05                           (NR   MIcro)
[...]
 83:   1232.71   0.064224  324.56  0.016258  ( 0.041256  0.095430  0.073820)
 84:   1250.66   0.031815  160.78  0.007939  ( 0.009511 -0.078698 -0.040678)
 85:   1254.94   0.010536   53.25  0.002620  ( 0.016273  0.038580  0.029442)
 86:   1297.09   0.041788  211.18  0.010054  ( 0.002927  0.086795  0.050118)
 87:   1344.69   0.036010  181.98  0.008357  (-0.050098 -0.052028 -0.056038)
 88:   1372.06   0.004171   21.08  0.000949  (-0.023467 -0.001785 -0.019869)
 89:   1393.38   0.038800  196.08  0.008690  ( 0.000305  0.082908  0.042614)
 90:   1405.32   0.004919   24.86  0.001092  (-0.017689 -0.013821 -0.024257)
 91:   1409.24   0.000938    4.74  0.000208  ( 0.011501 -0.008655  0.000723)
 92:   1418.61   0.007806   39.45  0.001717  ( 0.029711  0.009796  0.027172)
 93:   1437.11   0.013039   65.90  0.002831  ( 0.045203 -0.026349 -0.009687)
 94:   1450.99   0.014524   73.40  0.003124  ( 0.000453 -0.049576 -0.025801)
 95:   1458.93   0.011435   57.79  0.002446  (-0.019787 -0.022179 -0.039529)
 96:   1467.04   0.001935    9.78  0.000412  ( 0.008221  0.016626 -0.008226)
 97:   1475.83   0.002397   12.11  0.000507  (-0.010188 -0.011590  0.016393)
 98:   1481.03   0.004732   23.91  0.000997  (-0.026933  0.011864 -0.011438)
 99:   1488.15   0.064014  323.50  0.013424  (-0.038219 -0.088797 -0.063859)
100:   1498.64   0.040613  205.24  0.008457  (-0.033511 -0.055735 -0.065020)
101:   1519.47   0.017799   89.95  0.003655  ( 0.016194  0.038700  0.043538)
102:   1529.47   0.000891    4.50  0.000182  ( 0.006809 -0.004041  0.010914)
103:   1533.27   0.025199  127.35  0.005129  ( 0.028526  0.047467  0.045407)
104:   1542.16   0.006962   35.18  0.001409  ( 0.003554 -0.037163 -0.003879)
105:   1591.22   0.016062   81.17  0.003150  ( 0.050876 -0.023700  0.000128)
106:   1620.07   0.025431  128.52  0.004899  ( 0.019724 -0.060118 -0.029922)
107:   1626.61   0.005544   28.02  0.001064  (-0.018062  0.023111 -0.014258)
108:   1641.79   0.005054   25.54  0.000961  ( 0.025200 -0.017330 -0.005036)
109:   1681.92   0.013803   69.75  0.002561  ( 0.038075  0.009058  0.032082)
110:   2134.49   0.545164  2755.04  0.079703  (-0.128838  0.044627  0.247209)
111:   2149.78   0.419491  2119.93  0.060894  (-0.069178 -0.236034 -0.019901)
112:   3051.53   0.002627   13.28  0.000269  (-0.009213  0.013037  0.003720)
113:   3071.42   0.001004    5.07  0.000102  ( 0.006303  0.000227  0.007889)
114:   3114.41   0.000650    3.29  0.000065  (-0.003401 -0.005567  0.004755)
115:   3139.84   0.000254    1.28  0.000025  (-0.001496  0.001305 -0.004618)
116:   3158.09   0.001040    5.26  0.000103  (-0.009172  0.002249 -0.003687)
117:   3162.86   0.002341   11.83  0.000231  ( 0.009808  0.004590  0.010662)
118:   3191.54   0.000200    1.01  0.000020  (-0.001916  0.003614  0.001672)
119:   3198.98   0.000408    2.06  0.000040  ( 0.002329  0.003687  0.004563)
120:   3207.81   0.003012   15.22  0.000293  (-0.006475 -0.010172 -0.012148)
121:   3211.25   0.000671    3.39  0.000065  (-0.003374  0.007245  0.001132)
122:   3216.23   0.000126    0.63  0.000012  ( 0.000220 -0.002810 -0.002061)
123:   3230.32   0.000422    2.13  0.000041  ( 0.004915 -0.004053 -0.000406)
124:   3265.61   0.000233    1.18  0.000022  (-0.003989  0.000443 -0.002487)
125:   3277.57   0.000017    0.09  0.000002  ( 0.000322 -0.001212 -0.000245)

* The epsilon (eps) is given for a Dirac delta lineshape.
** The dipole moment derivative (T) already includes vibrational overlap.

The first frequency considered to be a vibration is 6
The total number of vibrations considered is 120


--------------------------
THERMOCHEMISTRY AT 298.15K
--------------------------

Temperature         ...   298.15 K
Pressure            ...     1.00 atm
Total Mass          ...   445.42 AMU
Quasi RRHO          ...     True
Cut-Off Frequency   ...     1.00 cm^-1

Throughout the following assumptions are being made:
  (1) The electronic state is orbitally nondegenerate
      but the spin degeneracy is treated
  (2) There are no thermally accessible electronically excited states
  (3) Hindered rotations indicated by low frequency modes are not
      treated as such but are treated as vibrations and this may
      cause some error
  (4) All equations used are the standard statistical mechanics
      equations for an ideal gas
  (5) All vibrations are strictly harmonic

freq.      14.14  E(vib)   ...       0.57 
freq.      16.66  E(vib)   ...       0.57 
freq.      20.70  E(vib)   ...       0.56 
freq.      23.16  E(vib)   ...       0.56 
freq.      45.39  E(vib)   ...       0.53 
freq.      54.13  E(vib)   ...       0.52 
freq.      86.99  E(vib)   ...       0.48 
freq.      90.47  E(vib)   ...       0.47 
freq.     100.08  E(vib)   ...       0.46 
freq.     120.98  E(vib)   ...       0.44 
freq.     131.88  E(vib)   ...       0.42 
freq.     151.93  E(vib)   ...       0.40 
freq.     174.37  E(vib)   ...       0.38 
freq.     183.69  E(vib)   ...       0.37 
freq.     189.20  E(vib)   ...       0.36 
freq.     202.30  E(vib)   ...       0.35 
freq.     205.65  E(vib)   ...       0.35 
freq.     224.13  E(vib)   ...       0.33 
freq.     236.30  E(vib)   ...       0.32 
freq.     242.28  E(vib)   ...       0.31 
freq.     262.68  E(vib)   ...       0.29 
freq.     279.67  E(vib)   ...       0.28 
freq.     311.21  E(vib)   ...       0.25 
freq.     322.00  E(vib)   ...       0.25 
freq.     332.36  E(vib)   ...       0.24 
freq.     367.38  E(vib)   ...       0.21 
freq.     379.31  E(vib)   ...       0.21 
freq.     385.48  E(vib)   ...       0.20 
freq.     407.81  E(vib)   ...       0.19 
freq.     448.80  E(vib)   ...       0.17 
freq.     461.28  E(vib)   ...       0.16 
freq.     470.70  E(vib)   ...       0.15 
freq.     486.35  E(vib)   ...       0.15 
freq.     494.26  E(vib)   ...       0.14 
freq.     501.17  E(vib)   ...       0.14 
freq.     510.07  E(vib)   ...       0.14 
freq.     510.57  E(vib)   ...       0.14 
freq.     537.65  E(vib)   ...       0.12 
freq.     547.02  E(vib)   ...       0.12 
freq.     573.87  E(vib)   ...       0.11 
freq.     597.06  E(vib)   ...       0.10 
freq.     600.45  E(vib)   ...       0.10 
freq.     630.51  E(vib)   ...       0.09 
freq.     645.07  E(vib)   ...       0.09 
freq.     655.09  E(vib)   ...       0.08 
freq.     666.03  E(vib)   ...       0.08 
freq.     683.60  E(vib)   ...       0.07 
freq.     737.32  E(vib)   ...       0.06 
freq.     740.68  E(vib)   ...       0.06 
freq.     780.17  E(vib)   ...       0.05 
freq.     786.70  E(vib)   ...       0.05 
freq.     803.93  E(vib)   ...       0.05 
freq.     805.45  E(vib)   ...       0.05 
freq.     822.42  E(vib)   ...       0.05 
freq.     850.17  E(vib)   ...       0.04 
freq.     857.64  E(vib)   ...       0.04 
freq.     915.98  E(vib)   ...       0.03 
freq.     918.14  E(vib)   ...       0.03 
freq.     923.26  E(vib)   ...       0.03 
freq.     925.49  E(vib)   ...       0.03 
freq.     939.69  E(vib)   ...       0.03 
freq.     965.21  E(vib)   ...       0.03 
freq.     974.59  E(vib)   ...       0.03 
freq.    1000.23  E(vib)   ...       0.02 
freq.    1004.89  E(vib)   ...       0.02 
freq.    1008.65  E(vib)   ...       0.02 
freq.    1052.10  E(vib)   ...       0.02 
freq.    1060.13  E(vib)   ...       0.02 
freq.    1062.98  E(vib)   ...       0.02 
freq.    1076.45  E(vib)   ...       0.02 
freq.    1100.65  E(vib)   ...       0.02 
freq.    1118.13  E(vib)   ...       0.01 
freq.    1147.28  E(vib)   ...       0.01 
freq.    1162.83  E(vib)   ...       0.01 
freq.    1164.03  E(vib)   ...       0.01 
freq.    1180.79  E(vib)   ...       0.01 
freq.    1195.56  E(vib)   ...       0.01 
freq.    1232.71  E(vib)   ...       0.01 
freq.    1250.66  E(vib)   ...       0.01 
freq.    1254.94  E(vib)   ...       0.01 
freq.    1297.09  E(vib)   ...       0.01 
freq.    1344.69  E(vib)   ...       0.01 
freq.    1372.06  E(vib)   ...       0.01 
freq.    1393.38  E(vib)   ...       0.00 
freq.    1405.32  E(vib)   ...       0.00 
freq.    1409.24  E(vib)   ...       0.00 
freq.    1418.61  E(vib)   ...       0.00 
freq.    1437.11  E(vib)   ...       0.00 
freq.    1450.99  E(vib)   ...       0.00 
freq.    1458.93  E(vib)   ...       0.00 
freq.    1467.04  E(vib)   ...       0.00 
freq.    1475.83  E(vib)   ...       0.00 
freq.    1481.03  E(vib)   ...       0.00 
freq.    1488.15  E(vib)   ...       0.00 
freq.    1498.64  E(vib)   ...       0.00 
freq.    1519.47  E(vib)   ...       0.00 
freq.    1529.47  E(vib)   ...       0.00 
freq.    1533.27  E(vib)   ...       0.00 
freq.    1542.16  E(vib)   ...       0.00 
freq.    1591.22  E(vib)   ...       0.00 
freq.    1620.07  E(vib)   ...       0.00 
freq.    1626.61  E(vib)   ...       0.00 
freq.    1641.79  E(vib)   ...       0.00 
freq.    1681.92  E(vib)   ...       0.00 
freq.    2134.49  E(vib)   ...       0.00 
freq.    2149.78  E(vib)   ...       0.00 
freq.    3051.53  E(vib)   ...       0.00 
freq.    3071.42  E(vib)   ...       0.00 
freq.    3114.41  E(vib)   ...       0.00 
freq.    3139.84  E(vib)   ...       0.00 
freq.    3158.09  E(vib)   ...       0.00 
freq.    3162.86  E(vib)   ...       0.00 
freq.    3191.54  E(vib)   ...       0.00 
freq.    3198.98  E(vib)   ...       0.00 
freq.    3207.81  E(vib)   ...       0.00 
freq.    3211.25  E(vib)   ...       0.00 
freq.    3216.23  E(vib)   ...       0.00 
freq.    3230.32  E(vib)   ...       0.00 
freq.    3265.61  E(vib)   ...       0.00 
freq.    3277.57  E(vib)   ...       0.00 

------------
INNER ENERGY
------------

The inner energy is: U= E(el) + E(ZPE) + E(vib) + E(rot) + E(trans)
    E(el)   - is the total energy from the electronic structure calculation
              = E(kin-el) + E(nuc-el) + E(el-el) + E(nuc-nuc)
    E(ZPE)  - the the zero temperature vibrational energy from the frequency calculation
    E(vib)  - the the finite temperature correction to E(ZPE) due to population
              of excited vibrational states
    E(rot)  - is the rotational thermal energy
    E(trans)- is the translational thermal energy

Summary of contributions to the inner energy U:
Electronic energy                ...  -3007.14096460 Eh
Zero point energy                ...      0.30269454 Eh     189.94 kcal/mol
Thermal vibrational correction   ...      0.02235556 Eh      14.03 kcal/mol
Thermal rotational correction    ...      0.00141627 Eh       0.89 kcal/mol
Thermal translational correction ...      0.00141627 Eh       0.89 kcal/mol
-----------------------------------------------------------------------
Total thermal energy                  -3006.81308195 Eh


Summary of corrections to the electronic energy:
(perhaps to be used in another calculation)
Total thermal correction                  0.02518811 Eh      15.81 kcal/mol
Non-thermal (ZPE) correction              0.30269454 Eh     189.94 kcal/mol
-----------------------------------------------------------------------
Total correction                          0.32788265 Eh     205.75 kcal/mol


--------
ENTHALPY
--------

The enthalpy is H = U + kB*T
                kB is Boltzmann's constant
Total thermal energy              ...  -3006.81308195 Eh 
Thermal Enthalpy correction       ...      0.00094421 Eh       0.59 kcal/mol
-----------------------------------------------------------------------
Total Enthalpy                    ...  -3006.81213774 Eh


Note: Only C1 symmetry has been detected, increase convergence thresholds 
      if your molecule has a higher symmetry. Symmetry factor of 1.0 is   
      used for the rotational entropy correction. 
 

Note: Rotational entropy computed according to Herzberg 
Infrared and Raman Spectra, Chapter V,1, Van Nostrand Reinhold, 1945 
Point Group:  C1, Symmetry Number:   1  
Rotational constants in cm-1:     0.005429     0.004857     0.003559 

Vibrational entropy computed according to the QRRHO of S. Grimme
Chem.Eur.J. 2012 18 9955 using a reference frequency of 100.0 cm-1


-------
ENTROPY
-------

The entropy contributions are T*S = T*(S(el)+S(vib)+S(rot)+S(trans))
     S(el)   - electronic entropy
     S(vib)  - vibrational entropy
     S(rot)  - rotational entropy
     S(trans)- translational entropy
The entropies will be listed as multiplied by the temperature to get
units of energy

Electronic entropy                ...      0.00065446 Eh      0.41 kcal/mol
Vibrational entropy               ...      0.04056143 Eh     25.45 kcal/mol
Rotational entropy                ...      0.01714992 Eh     10.76 kcal/mol
Translational entropy             ...      0.02098695 Eh     13.17 kcal/mol
-----------------------------------------------------------------------
Final entropy term                ...      0.07935275 Eh     49.79 kcal/mol

In case the symmetry of your molecule has not been determined correctly
or in case you have a reason to use a different symmetry number we print 
out the resulting rotational entropy values for sn=1,12:

 non-linear molecules -----------------------------------
|  sn= 1 | S(rot)=       0.01714992 Eh     10.76 kcal/mol|
|  sn= 2 | S(rot)=       0.01649546 Eh     10.35 kcal/mol|
|  sn= 3 | S(rot)=       0.01611263 Eh     10.11 kcal/mol|
|  sn= 4 | S(rot)=       0.01584101 Eh      9.94 kcal/mol|
|  sn= 5 | S(rot)=       0.01563032 Eh      9.81 kcal/mol|
|  sn= 6 | S(rot)=       0.01545817 Eh      9.70 kcal/mol|
|  sn= 7 | S(rot)=       0.01531263 Eh      9.61 kcal/mol|
|  sn= 8 | S(rot)=       0.01518655 Eh      9.53 kcal/mol|
|  sn= 9 | S(rot)=       0.01507534 Eh      9.46 kcal/mol|
|  sn=10 | S(rot)=       0.01497586 Eh      9.40 kcal/mol|
|  sn=11 | S(rot)=       0.01488587 Eh      9.34 kcal/mol|
|  sn=12 | S(rot)=       0.01480372 Eh      9.29 kcal/mol|
 linear molecules ---------------------------------------
|  Dinfh | S(rot)=       0.01064924 Eh      6.68 kcal/mol|
|  Cinfv | S(rot)=       0.01130369 Eh      7.09 kcal/mol|
 --------------------------------------------------------


-------------------
GIBBS FREE ENERGY
-------------------

The Gibbs free energy is G = H - T*S

Total enthalpy                    ...  -3006.81213774 Eh 
Total entropy correction          ...     -0.07935275 Eh    -49.79 kcal/mol
-----------------------------------------------------------------------
Final Gibbs free energy         ...  -3006.89149049 Eh

For completeness - the Gibbs free energy minus the electronic energy
G-E(el)                           ...      0.24947411 Eh    156.55 kcal/mol


Maximum memory used throughout the entire PROP-calculation: 1166.7 MB

--------------------------------
SUGGESTED CITATIONS FOR THIS RUN
--------------------------------

Below you find a list of papers that are relevant to this ORCA run
We neither can nor want to force you to cite these papers, but we appreciate if you do
You receive ORCA, which is the product of decades of hard work by many enthusiastic individuals, for free
The only thing we kindly ask in return is that you cite our papers,
We deeply appreciate it, if you show your appreciation for ORCA by not just citing the generic ORCA reference.

Please note that relegating all ORCA citations to the supporting information does *not* help us.
SI sections are not indexed - citations you put there will not count into any citation statistics
But we need these citations in order to attract the funding resources that allow us to do what we are doing

Therefore, if you are a happy ORCA user, please consider citing a few of the papers listed below in the main body of your paper

In addition to the list printed below, the program has created the file OKUXUO-S6.bibtex that contains the list in bibtex format
You can import this file easily into all common literature databanks and citation aid programs


List of essential papers. We consider these as the minimum necessary citations

  1. Neese,F.
     Software update: the ORCA program system, version 5.0
     WIRES Comput. Molec. Sci., 2022 12(1)e1606
     doi.org/10.1002/wcms.1606

List of papers to cite with high priority. The work reported in these papers was absolutely
necessary for this run to complete.
Our perspective: the developers of density functionals and basis sets usually get cited in chemistry papers
Good! But without the algorithms to do something with them, the functionals or basis sets would not do anything.
Hence, in our opinion, the algorithm design and method developments papers are equally worthy of getting cited

  1. Neese,F.
     An improvement of the resolution of the identity approximation for the formation of the Coulomb matrix
     J. Comp. Chem., 2003 24(14)1740-1747
     doi.org/10.1002/jcc.10318
  2. Neese,F.; Wennmohs,F.; Hansen,A.; Becker,U.
     Efficient, approximate and parallel Hartree-Fock and hybrid DFT calculations. A 'chain-of-spheres' algorithm for the Hartree-Fock exchange
     Chem. Phys., 2009 356(1-3)98-109
     doi.org/10.1016/j.chemphys.2008.10.036
  3. Bykov,D.; Petrenko,T.; Izsak,R.; Kossmann,S.; Becker,U.; Valeev,E.; Neese,F.
     Efficient implementation of the analytic second derivatives of Hartree-Fock and hybrid DFT energies: a detailed analysis of different approximations
     Molec. Phys., 2015 113 1961-1977
     doi.org/10.1080/00268976.2015.1025114
  4. Helmich-Paris,B.; de Souza,B.; Neese,F.; Izsák,R.
     An improved chain of spheres for exchange algorithm
     J. Chem. Phys., 2021 155 104109
     doi.org/doi: 10.1063/5.0058766.
  5. Helmich-Paris,B.
     A trust-region augmented Hessian implementation for restricted and unrestricted Hartree–Fock and Kohn–Sham methods
     J. Chem. Phys., 2021 154 164104
     doi.org/10.1063/5.0040798
  6. Neese,F.
     The SHARK Integral Generation and Digestion System
     J. Comp. Chem., 2022  1-16
     doi.org/10.1002/jcc.26942

List of suggested additional citations. These are papers that are important in the 'surrounding' of 
of this run, or papers that preceded the highly important papers. If you like your results we are grateful for a citation.

  1. Izsak,R.; Neese,F.
     An overlap fitted chain of spheres exchange method
     J. Chem. Phys., 2011 135 144105
     doi.org/10.1063/1.3646921
  2. Izsak,R.; Hansen,A.; Neese,F.
     The resolution of identity and chain of spheres approximations for the LPNO-CCSD singles Fock term
     Molec. Phys., 2012 110 2413-2417
     doi.org/10.1080/00268976.2012.687466
  3. Neese,F.
     The ORCA program system
     WIRES Comput. Molec. Sci., 2012 2(1)73-78
     doi.org/10.1002/wcms.81
  4. Izsak,R.; Neese,F.; Klopper,W.
     Robust fitting techniques in the chain of spheres approximation to the Fock exchange: The role of the complementary space
     J. Chem. Phys., 2013 139 
     doi.org/10.1063/1.4819264
  5. Neese,F.
     Software update: the ORCA program system, version 4.0
     WIRES Comput. Molec. Sci., 2018 8(1)1-6
     doi.org/10.1002/wcms.1327
  6. Neese,F.; Wennmohs,F.; Becker,U.; Riplinger,C.
     The ORCA quantum chemistry program package
     J. Chem. Phys., 2020 152 Art. No. L224108
     doi.org/10.1063/5.0004608

List of optional additional citations

  1. Neese,F.
     Approximate second-order SCF convergence for spin unrestricted wavefunctions
     Chem. Phys. Lett., 2000 325(1-3)93-98
     doi.org/10.1016/s0009-2614(00)00662-x

Timings for individual modules:

Sum of individual times          ...    32773.690 sec (= 546.228 min)
Startup calculation              ...      497.710 sec (=   8.295 min)   1.5 %
SCF iterations                   ...    15594.746 sec (= 259.912 min)  47.6 %
Property integrals               ...     2656.564 sec (=  44.276 min)   8.1 %
SCF Response                     ...    10589.425 sec (= 176.490 min)  32.3 %
Property calculations            ...      986.495 sec (=  16.442 min)   3.0 %
SCF Gradient evaluation          ...     2447.578 sec (=  40.793 min)   7.5 %
Geometry relaxation              ...        1.173 sec (=   0.020 min)   0.0 %
                             ****ORCA TERMINATED NORMALLY****
TOTAL RUN TIME: 0 days 9 hours 7 minutes 20 seconds 290 msec
