
                                 *****************
                                 * O   R   C   A *
                                 *****************

                                            #,                                       
                                            ###                                      
                                            ####                                     
                                            #####                                    
                                            ######                                   
                                           ########,                                 
                                     ,,################,,,,,                         
                               ,,#################################,,                 
                          ,,##########################################,,             
                       ,#########################################, ''#####,          
                    ,#############################################,,   '####,        
                  ,##################################################,,,,####,       
                ,###########''''           ''''###############################       
              ,#####''   ,,,,##########,,,,          '''####'''          '####       
            ,##' ,,,,###########################,,,                        '##       
           ' ,,###''''                  '''############,,,                           
         ,,##''                                '''############,,,,        ,,,,,,###''
      ,#''                                            '''#######################'''  
     '                                                          ''''####''''         
             ,#######,   #######,   ,#######,      ##                                
            ,#'     '#,  ##    ##  ,#'     '#,    #''#        ,####,   ,####,        
            ##       ##  ##   ,#'  ##            #'  '#       #'       #'  '#        
            ##       ##  #######   ##           ,######,      #####,   #    #        
            '#,     ,#'  ##    ##  '#,     ,#' ,#      #,     #,   #   #,  ,#        
             '#######'   ##     ##  '#######'  #'      '#     '####' # '####'        



                #########################################################
                #                        -***-                          #
                #          Department of theory and spectroscopy        #
                #                                                       #
                #                      Frank Neese                      #
                #                                                       #
                #     Directorship, Architecture, Infrastructure        #
                #                    SHARK, DRIVERS                     #
                #        Core code/Algorithms in most modules           #
                #                                                       #
                #        Max Planck Institute fuer Kohlenforschung      #
                #                Kaiser Wilhelm Platz 1                 #
                #                 D-45470 Muelheim/Ruhr                 #
                #                      Germany                          #
                #                                                       #
                #                  All rights reserved                  #
                #                        -***-                          #
                #########################################################


                         Program Version 6.0.1  -  RELEASE   -


 With contributions from (in alphabetic order):
[Max-Planck-Institut fuer Kohlenforschung]                               
  Daniel Aravena         : Magnetic Suceptibility                        
  Michael Atanasov       : Ab Initio Ligand Field Theory (pilot matlab implementation)
  Alexander A. Auer      : GIAO ZORA, VPT2 properties, NMR spectrum      
  Ute Becker             : All parallelization in ORCA, NUMFREQ, NUMCALC 
  Giovanni Bistoni       : ED, misc. LED, open-shell LED, HFLD           
  Martin Brehm           : Molecular dynamics                            
  Dmytro Bykov           : pre 5.0 version of the SCF Hessian            
  Marcos Casanova-Páez   : Triplet and SCS-CIS(D). UHF-(DLPNO)-IP/EA/STEOM-CCSD. UHF-CVS-IP/STEOM-CCSD   
  Vijay G. Chilkuri      : MRCI spin determinant printing, contributions to CSF-ICE 
  Pauline Colinet        : FMM embedding                                 
  Dipayan Datta          : RHF DLPNO-CCSD density                        
  Achintya Kumar Dutta   : EOM-CC, STEOM-CC                              
  Nicolas Foglia         : Exact transition moments, OPA infrastructure, MCD improvements    
  Dmitry Ganyushin       : Spin-Orbit,Spin-Spin,Magnetic field MRCI      
  Miquel Garcia-Rates    : C-PCM and meta-GGA Hessian, CCSD/C-PCM, Gaussian charge scheme 
  Tiago L. C. Gouveia    : GS-ROHF, GS-ROCIS                             
  Yang Guo               : DLPNO-NEVPT2, F12-NEVPT2, CIM, IAO-localization        
  Andreas Hansen         : Spin unrestricted coupled pair/coupled cluster methods 
  Ingolf Harden          : AUTO-CI MPn and infrastructure                
  Benjamin Helmich-Paris : MC-RPA, TRAH-(SCF,CASSCF), AVAS, COSX integrals, SCF dyn. polar. 
  Lee Huntington         : MR-EOM, pCC                                   
  Robert Izsak           : Overlap fitted RIJCOSX, COSX-SCS-MP3, EOM     
  Riya Kayal             : Wick's Theorem for AUTO-CI, AUTO-CI UHF-CCSDT 
  Emily Kempfer          : AUTO-CI, RHF CISDT and CCSDT                  
  Christian Kollmar      : KDIIS, OOCD, Brueckner-CCSD(T), CCSD density, CASPT2, CASPT2-K, improved NEVPT2 
  Axel Koslowski         : Symmetry handling                             
  Simone Kossmann        : meta-GGA functionals, TD-DFT gradient, OOMP2, (MP2 Hessian; deprecated post 5.0) 
  Lucas Lang             : DCDCAS                                        
  Marvin Lechner         : AUTO-CI (C++ implementation), FIC-MRCC        
  Spencer Leger          : CASSCF response                               
  Dagmar Lenk            : GEPOL surface, SMD, ORCA-2-JSON               
  Dimitrios Liakos       : Extrapolation schemes; Compound Job, initial MDCI parallelization 
  Dimitrios Manganas     : Further ROCIS development; embedding schemes. LFT, Crystal Embedding 
  Dimitrios Pantazis     : SARC Basis sets                               
  Anastasios Papadopoulos: AUTO-CI, single reference methods and gradients 
  Taras Petrenko         : pre 6.0 DFT Hessian and TD-DFT gradient, (ASA, deprecated), ECA, 1-Electron XAS/XES, NRVS 
  Peter Pinski           : DLPNO-MP2, DLPNO-MP2 Gradient                 
  Christoph Reimann      : Effective Core Potentials                     
  Marius Retegan         : Local ZFS, SOC                                
  Christoph Riplinger    : Optimizer, TS searches, QM/MM, DLPNO-CCSD(T), (RO)-DLPNO pert. Triples 
  Michael Roemelt        : Original ROCIS implementation                 
  Masaaki Saitow         : Open-shell DLPNO-CCSD energy and density      
  Barbara Sandhoefer     : DKH picture change effects                    
  Kantharuban Sivalingam : CASSCF convergence/infrastructure, NEVPT2 and variants, FIC-MRCI 
  Bernardo de Souza      : ESD, SOC TD-DFT                               
  Georgi L. Stoychev     : AutoAux, RI-MP2 NMR, DLPNO-MP2 response, X2C  
  Van Anh Tran           : RI-MP2 g-tensors                              
  Willem Van den Heuvel  : Paramagnetic NMR                              
  Zikuan Wang            : NOTCH, Electric field optimization            
  Frank Wennmohs         : Technical directorship and infrastructure     
  Hang Xu                : AUTO-CI-Response properties                   
                                                                         
[FACCTs GmbH]                                                            
  Markus Bursch, Miquel Garcia-Rates, Christoph Riplinger, Bernardo de Souza, Georgi L. Stoychev 
                                                                 
  APM, Basis sets (HGBS, AHGBS, def-TZVP (Ac-Lr), def2-XVPD (La-Lu)), CI-OPT, improved COSX, DLPNO-Multilevel,           
  DOCKER, DRACO, updates on ESD, GOAT, IRC, LR-CPCM, MBIS, meta-GGA TD-DFT gradient, ML-optimized integration grids, 
  MM, NACMEs, nearIR, NEB, NEB-TS, NL-DFT gradient (VV10), 2- and 3-layer-ONIOM, interface openCOSMO-RS, QMMM,   
  Crystal-QMMM, SF, symmetry and pop. for TD-DFT, r2SCAN hybrids, SOLVATOR                                   
                                                                         
[Other institutions]                                                     
  V. Asgeirsson          : NEB                                           
  Christoph Bannwarth    : sTDA-DFT, sTD-DFT, PBEh-3c, B97-3c, D3        
  Sebastian Ehlert       : rSCAN, r2SCAN, r2SCAN-3c, D4, dhf basis sets  
  Marvin Friede          : D4 for Fr, Ra, Ac-Lr                          
  Lars Goerigk           : TD-DFT with DH, B97 family of functionals     
  Stefan Grimme          : VdW corrections, initial TS optimization, DFT functionals, gCP, sTDA/sTD-DF 
  Waldemar Hujo          : DFT-NL                                        
  H. Jonsson             : NEB                                           
  Holger Kruse           : gCP                                           
  Marcel Mueller         : wB97X-3c, vDZP basis set                      
  Hagen Neugebauer       : wr2SCAN                                       
  Tobias Risthaus        : range-separated hybrid DFT                    
  Lukas Wittmann         : regularized MP2, r2SCAN double-hybrids, wr2SCAN        
                                                                         
We gratefully acknowledge several colleagues who have allowed us to      
interface, adapt or use parts of their codes:                            
  Ed Valeev, F. Pavosevic, A. Kumar             : LibInt (2-el integral package), F12 methods 
  Garnet Chan, S. Sharma, J. Yang, R. Olivares  : DMRG                   
  Ulf Ekstrom                                   : XCFun DFT Library      
  Mihaly Kallay                                 : mrcc  (arbitrary order and MRCC methods)
  Frank Weinhold                                : gennbo (NPA and NBO analysis)           
  Simon Mueller                                 : openCOSMO-RS                            
  Christopher J. Cramer and Donald G. Truhlar   : smd solvation model                     
  S Lehtola, MJT Oliveira, MAL Marques          : LibXC Library                           
  Liviu Ungur et al                             : ANISO software                          


 Your calculation uses the libint2 library for the computation of 2-el integrals
 For citations please refer to: http://libint.valeyev.net

 Your ORCA version has been built with support for libXC version: 6.2.2
 For citations please refer to: https://libxc.gitlab.io

 This ORCA versions uses:
   CBLAS   interface :  Fast vector & matrix operations
   LAPACKE interface :  Fast linear algebra routines
   SCALAPACK package :  Parallel linear algebra routines
   Shared memory     :  Shared parallel matrices
   BLAS/LAPACK       :  OpenBLAS 0.3.27  USE64BITINT DYNAMIC_ARCH NO_AFFINITY Cooperlake SINGLE_THREADED
        Core in use  :  Cooperlake
   Copyright (c) 2011-2014, The OpenBLAS Project


NOTE: MaxCore=18000 MB was set to SCF,MP2,MDCI,CIPSI,MRCI and CIS
      => If you want to overwrite this, your respective input block should be placed after the MaxCore statement
Warning: RI is on but no J-basis has been assigned. Assigning Def2/J (nothing to worry about!)
================================================================================

----- Orbital basis set information -----
Your calculation utilizes the basis: def2-TZVP
   F. Weigend and R. Ahlrichs, Phys. Chem. Chem. Phys. 7, 3297 (2005).

----- AuxJ basis set information -----
Your calculation utilizes the auxiliary basis: def2/J
   F. Weigend, Phys. Chem. Chem. Phys. 8, 1057 (2006).

================================================================================
                                        WARNINGS
                       Please study these warnings very carefully!
================================================================================


WARNING: your system is open-shell and RHF/RKS was chosen
  ===> : WILL SWITCH to UHF/UKS


WARNING: Geometry Optimization
  ===> : Switching off AutoStart
         For restart on a previous wavefunction, please use MOREAD

================================================================================
                                       INPUT FILE
================================================================================
NAME = SUTWOT-S6.inp
|  1> ! PBE0 def2-TZVP Opt Freq DEFGRID3
|  2> 
|  3> %maxcore 18000
|  4> 
|  5> %pal
|  6>     nprocs 32
|  7> end
|  8> 
|  9> *xyz 0 2
| 10> Mn 8.337606855717594 -5.294595561108978 6.517482251996767
| 11> F 5.3924802842614215 -5.640428597552002 10.048201504373788
| 12> F 4.16894537443702 -6.043292718396771 8.320083723112731
| 13> F 4.056016919674498 -4.124983900338412 9.303412225317889
| 14> F 8.207085143317368 -0.7004542916171315 6.846489369027541
| 15> F 6.948749947404504 -1.1213629372733354 5.148514507264432
| 16> F 6.063093664452077 -0.6030253076535579 7.045973474306132
| 17> O 6.801644340132161 -5.518826569829111 7.671664794586398
| 18> O 8.007877148791865 -3.399756332087673 6.310699346516246
| 19> N 9.504279818034442 -4.91632842294635 8.142360257085294
| 20> N 12.483694977776363 -2.9473709971525555 11.613135323321995
| 21> N 12.928176564784373 -1.9166803768001346 11.678566457808952
| 22> C 9.411776056867113 -5.655939977987936 9.253003869888177
| 23> C 10.190876197501888 -5.446080305443768 10.370527726899036
| 24> C 11.139188866911525 -4.4188275710377765 10.372017237150658
| 25> C 11.22321911715972 -3.6467278580146845 9.208514803126182
| 26> C 10.40256459394214 -3.9246506288053986 8.138100131956678
| 27> C 11.966728364750205 -4.147597613260776 11.5382555094961
| 28> C 4.8862236606246565 -5.099908495211978 8.932763003915401
| 29> C 6.011483471086354 -4.606493570532467 8.01952087118332
| 30> C 6.142645084856909 -3.2307368423988425 7.783159988961207
| 31> C 7.059828490165799 -2.7633943619334476 6.833930952954649
| 32> C 7.059025901270385 -1.276450790479711 6.470079467292423
| 33> H 8.6691809276564 -6.444254475734112 9.23573703813492
| 34> H 10.037662239521143 -6.068952817445851 11.241067706245026
| 35> H 11.933725614434444 -2.8337613505495787 9.119824456605395
| 36> H 10.460394863972798 -3.3416661087905455 7.227196991144739
| 37> H 5.668159707122715 -2.4609485819766372 8.552938655261668
| 38> O 9.873539577560082 -5.070286303386405 5.363316534681799
| 39> C 10.663857758870606 -5.982572976157144 5.015660256237957
| 40> C 11.788921772198327 -5.489181290373528 4.102169039711577
| 41> F 11.282689170922103 -4.947961798259619 2.986901319557257
| 42> F 12.506302399209913 -4.546137004798415 4.7150824188692
| 43> F 12.619256139627344 -6.464044297425992 3.731610080680217
| 44> C 10.535906471881997 -7.357350912750471 5.256283594605894
| 45> C 9.615733342035119 -7.82563818112466 6.201486518719676
| 46> O 8.66738049366638 -7.1894016931395175 6.724326329471795
| 47> C 12.284642137139635 -5.053353290725884 12.646028634272891
| 48> C 12.368415193165099 -6.433358004484781 12.458864115802955
| 49> C 12.693505455874057 -7.238899232341783 13.537827226790004
| 50> N 12.94548348756758 -6.784357239150236 14.76043298493126
| 51> C 12.876980121876104 -5.4686798644070835 14.931995156489482
| 52> C 12.553290114680994 -4.57253020141809 13.928056875841747
| 53> H 12.501057785830408 -3.513325590808753 14.153456688261127
| 54> H 13.08525531179623 -5.10294791719445 15.933667528779468
| 55> H 12.762969076852306 -8.314647411234969 13.401438418676776
| 56> H 12.20798751372291 -6.87825259066493 11.485152131517212
| 57> N 7.171112038974769 -5.672892961804065 4.892564213310337
| 58> C 9.618333621132075 -9.312004374708945 6.567710814216789
| 59> F 8.466286439404413 -9.887299437585737 6.204624309033019
| 60> F 9.742968071324484 -9.464486495192286 7.888661830630766
| 61> F 10.607674476137836 -9.987603883733682 5.982901985668221
| 62> H 11.027965892011048 -8.121403592162945 4.510695222787275
| 63> N 4.1942214463293945 -7.643188091269785 1.42057275358483
| 64> N 3.7503445971330347 -8.67413121759033 1.355049526984096
| 65> C 7.264013709330542 -4.933428618625051 3.7818626581028316
| 66> C 6.485475964643899 -5.143577880365975 2.6640156263204835
| 67> C 5.537228676122821 -6.170899348975867 2.6622798127033533
| 68> C 5.452748670744534 -6.942787637952387 3.825895754887516
| 69> C 6.272881356859415 -6.664612388734076 4.896636009224764
| 70> C 4.710493045951003 -6.442677249088904 1.4956119889518518
| 71> H 8.006586466218183 -4.145094288453652 3.79930059934631
| 72> H 6.6391975840108515 -4.520970201571899 1.7933971462334937
| 73> H 4.74227231720316 -7.755792460486559 3.9143971673489304
| 74> H 6.2147405241764915 -7.247461456859679 5.807611297559433
| 75> C 4.392977870747894 -5.537343262705064 0.387359216718528
| 76> C 4.3069947772930055 -4.157444320110848 0.5743520540433356
| 77> C 3.9823171313592454 -3.3523927288199227 -0.5050980818589754
| 78> N 3.7326803973377096 -3.8073248688198866 -1.7280365063731495
| 79> C 3.8031811489385907 -5.122914685314482 -1.8994329543146693
| 80> C 4.126625326597817 -6.0185849117653305 -0.8949807208121805
| 81> H 4.180551220281285 -7.07773438162501 -1.1202491096366973
| 82> H 3.5967670211141285 -5.488985637232063 -2.901367163160271
| 83> H 3.9111280617033626 -2.2767421932195795 -0.36884487799715804
| 84> H 4.465327596171718 -3.712298289443554 1.5482727121287332
| 85> *
| 86> 
| 87>                          ****END OF INPUT****
================================================================================

                       *****************************
                       * Geometry Optimization Run *
                       *****************************

Geometry optimization settings:
Update method            Update   .... BFGS
Choice of coordinates    CoordSys .... (2022) Redundant Internals
Initial Hessian          InHess   .... Almloef's Model
Max. no of cycles        MaxIter  .... 225

Convergence Tolerances:
Energy Change            TolE     ....  5.0000e-06 Eh
Max. Gradient            TolMAXG  ....  3.0000e-04 Eh/bohr
RMS Gradient             TolRMSG  ....  1.0000e-04 Eh/bohr
Max. Displacement        TolMAXD  ....  4.0000e-03 bohr
RMS Displacement         TolRMSD  ....  2.0000e-03 bohr
Strict Convergence                .... False

------------------------------------------------------------------------------
                        ORCA OPTIMIZATION COORDINATE SETUP
------------------------------------------------------------------------------

The optimization will be done in redundant internal coordinates (2022)
Making redundant internal coordinates   ...  (2022 redundants) done
Evaluating the initial hessian          ...  (Almloef) done
Evaluating the coordinates              ...  done
Calculating the B-matrix                .... done
Calculating the G-matrix                .... done
Diagonalizing the G-matrix              .... done
Small eigenvalue found = 7.689e-04
Small eigenvalue found = 1.689e-03
Small eigenvalue found = 3.815e-03
Small eigenvalue found = 4.872e-03
Small eigenvalue found = 8.007e-03
Small eigenvalue found = 9.039e-03
Small eigenvalue found = 1.126e-02
Small eigenvalue found = 1.211e-02
Small eigenvalue found = 1.367e-02
Small eigenvalue found = 1.419e-02
Small eigenvalue found = 1.871e-02
Small eigenvalue found = 2.221e-02
Small eigenvalue found = 2.286e-02
Small eigenvalue found = 2.704e-02
The first mode is                       ....  186
The number of degrees of freedom        ....  219

    -----------------------------------------------------------------
                    Redundant Internal Coordinates


    -----------------------------------------------------------------
         Definition                    Initial Value    Approx d2E/dq
    -----------------------------------------------------------------
      1. B(O   7,Mn  0)                  1.9343         0.766604   
      2. B(O   8,Mn  0)                  1.9344         0.766386   
      3. B(N   9,Mn  0)                  2.0358         0.528061   
      4. B(N  11,N  10)                  1.1244         1.329953   
      5. B(C  12,N   9)                  1.3376         0.678443   
      6. B(C  13,C  12)                  1.3784         0.652074   
      7. B(C  14,C  13)                  1.3981         0.606587   
      8. B(C  15,C  14)                  1.3989         0.604686   
      9. B(C  16,N   9)                  1.3380         0.677283   
     10. B(C  16,C  15)                  1.3771         0.655033   
     11. B(C  17,C  14)                  1.4555         0.491165   
     12. B(C  17,N  10)                  1.3090         0.753619   
     13. B(C  18,F   3)                  1.3331         0.640884   
     14. B(C  18,F   2)                  1.3341         0.638473   
     15. B(C  18,F   1)                  1.3389         0.627320   
     16. B(C  19,C  18)                  1.5309         0.372331   
     17. B(C  19,O   7)                  1.2561         0.915279   
     18. B(C  20,C  19)                  1.4021         0.597716   
     19. B(C  21,C  20)                  1.4002         0.601731   
     20. B(C  21,O   8)                  1.2560         0.915528   
     21. B(C  22,C  21)                  1.5308         0.372460   
     22. B(C  22,F   6)                  1.3331         0.640941   
     23. B(C  22,F   5)                  1.3352         0.635922   
     24. B(C  22,F   4)                  1.3385         0.628323   
     25. B(H  23,C  12)                  1.0831         0.369295   
     26. B(H  24,C  13)                  1.0813         0.371748   
     27. B(H  25,C  15)                  1.0833         0.369035   
     28. B(H  26,C  16)                  1.0830         0.369436   
     29. B(H  27,C  20)                  1.1875         0.251647   
     30. B(O  28,Mn  0)                  1.9343         0.766673   
     31. B(C  29,O  28)                  1.2561         0.915246   
     32. B(C  30,C  29)                  1.5309         0.372335   
     33. B(F  31,C  30)                  1.3390         0.627018   
     34. B(F  32,C  30)                  1.3340         0.638656   
     35. B(F  33,C  30)                  1.3331         0.640862   
     36. B(C  34,C  29)                  1.4015         0.598885   
     37. B(C  35,C  34)                  1.3998         0.602719   
     38. B(O  36,C  35)                  1.2560         0.915518   
     39. B(O  36,Mn  0)                  1.9344         0.766438   
     40. B(C  37,C  17)                  1.4658         0.472906   
     41. B(C  38,C  37)                  1.3952         0.613072   
     42. B(C  39,C  38)                  1.3852         0.635943   
     43. B(N  40,C  39)                  1.3285         0.701492   
     44. B(C  41,N  40)                  1.3286         0.701233   
     45. B(C  42,C  41)                  1.3841         0.638471   
     46. B(C  42,C  37)                  1.3953         0.612671   
     47. B(H  43,C  42)                  1.0842         0.367881   
     48. B(H  44,C  41)                  1.0865         0.364758   
     49. B(H  44,Mn  0)                 10.5471         0.000000   
     50. B(H  45,C  39)                  1.0866         0.364650   
     51. B(H  46,C  38)                  1.0825         0.370174   
     52. B(N  47,Mn  0)                  2.0357         0.528186   
     53. B(C  48,C  35)                  1.5308         0.372450   
     54. B(F  49,C  48)                  1.3379         0.629607   
     55. B(F  50,C  48)                  1.3356         0.635092   
     56. B(F  51,C  48)                  1.3331         0.640769   
     57. B(H  52,C  34)                  1.1755         0.263035   
     58. B(N  54,N  53)                  1.1244         1.329963   
     59. B(C  55,N  47)                  1.3376         0.678457   
     60. B(C  56,C  55)                  1.3784         0.652102   
     61. B(C  57,C  56)                  1.3981         0.606573   
     62. B(C  58,C  57)                  1.3989         0.604676   
     63. B(C  59,C  58)                  1.3771         0.655049   
     64. B(C  59,N  47)                  1.3380         0.677298   
     65. B(C  60,C  57)                  1.4555         0.491183   
     66. B(C  60,N  53)                  1.3090         0.753632   
     67. B(H  61,C  55)                  1.0831         0.369292   
     68. B(H  62,C  56)                  1.0813         0.371771   
     69. B(H  63,C  58)                  1.0833         0.369044   
     70. B(H  64,C  59)                  1.0830         0.369430   
     71. B(C  65,C  60)                  1.4658         0.472879   
     72. B(C  66,C  65)                  1.3952         0.613057   
     73. B(C  67,C  66)                  1.3852         0.635948   
     74. B(N  68,C  67)                  1.3285         0.701497   
     75. B(C  69,N  68)                  1.3286         0.701242   
     76. B(C  70,C  69)                  1.3841         0.638459   
     77. B(C  70,C  65)                  1.3953         0.612692   
     78. B(H  71,C  70)                  1.0842         0.367879   
     79. B(H  72,H  44)                 21.0936         0.000000   
     80. B(H  72,Mn  0)                 10.5465         0.000000   
     81. B(H  72,C  69)                  1.0865         0.364757   
     82. B(H  73,C  67)                  1.0866         0.364652   
     83. B(H  74,C  66)                  1.0825         0.370198   
     84. A(O   7,Mn  0,O  36)           87.5938         0.589770   
     85. A(N   9,Mn  0,O  28)           89.9796         0.549286   
     86. A(O   8,Mn  0,N  47)           89.9444         0.549271   
     87. A(O   7,Mn  0,N  47)           89.9845         0.549301   
     88. A(O  28,Mn  0,N  47)           90.0158         0.549310   
     89. A(O   8,Mn  0,N   9)           90.0572         0.549247   
     90. A(N   9,Mn  0,O  36)           89.9405         0.549254   
     91. A(O   8,Mn  0,O  28)           87.5914         0.589773   
     92. A(O   7,Mn  0,N   9)           90.0201         0.549276   
     93. A(O  28,Mn  0,O  36)           92.4086         0.589780   
     94. A(O  36,Mn  0,N  47)           90.0580         0.549278   
     95. A(O   7,Mn  0,O   8)           92.4062         0.589762   
     96. A(Mn  0,O   7,C  19)          125.4906         0.539277   
     97. A(Mn  0,O   8,C  21)          125.4807         0.539276   
     98. A(Mn  0,N   9,C  16)          121.3257         0.475579   
     99. A(C  12,N   9,C  16)          117.3152         0.442400   
    100. A(Mn  0,N   9,C  12)          121.3568         0.475728   
    101. L(N  11,N  10,C  17,C  37, 2) 179.9891         0.507088   
    102. L(N  11,N  10,C  17,C  37, 1) 179.9382         0.507088   
    103. A(N   9,C  12,C  13)          123.3620         0.442286   
    104. A(N   9,C  12,H  23)          115.8883         0.357657   
    105. A(C  13,C  12,H  23)          120.7476         0.357467   
    106. A(C  14,C  13,H  24)          121.2316         0.353505   
    107. A(C  12,C  13,H  24)          119.0073         0.357869   
    108. A(C  12,C  13,C  14)          119.7449         0.436304   
    109. A(C  13,C  14,C  15)          116.4492         0.430424   
    110. A(C  13,C  14,C  17)          121.5630         0.414728   
    111. A(C  15,C  14,C  17)          121.9665         0.414497   
    112. A(C  14,C  15,H  25)          121.4448         0.352879   
    113. A(C  14,C  15,C  16)          119.9535         0.436414   
    114. A(C  16,C  15,H  25)          118.5970         0.357699   
    115. A(N   9,C  16,H  26)          115.9428         0.357577   
    116. A(C  15,C  16,H  26)          120.8831         0.357765   
    117. A(N   9,C  16,C  15)          123.1723         0.442511   
    118. A(N  10,C  17,C  37)          115.9569         0.425416   
    119. A(N  10,C  17,C  14)          116.1836         0.428313   
    120. A(C  14,C  17,C  37)          127.8579         0.396882   
    121. A(F   3,C  18,C  19)          112.8243         0.394501   
    122. A(F   2,C  18,C  19)          110.4347         0.394241   
    123. A(F   1,C  18,C  19)          110.4362         0.393026   
    124. A(F   2,C  18,F   3)          108.0593         0.429411   
    125. A(F   1,C  18,F   3)          107.4027         0.428056   
    126. A(F   1,C  18,F   2)          107.4826         0.427767   
    127. A(C  18,C  19,C  20)          119.0506         0.393915   
    128. A(O   7,C  19,C  18)          113.1719         0.422024   
    129. A(O   7,C  19,C  20)          127.3856         0.459684   
    130. A(C  21,C  20,H  27)          118.9986         0.330707   
    131. A(C  19,C  20,H  27)          119.3013         0.330341   
    132. A(C  19,C  20,C  21)          120.2024         0.428910   
    133. A(O   8,C  21,C  20)          127.4252         0.460269   
    134. A(C  20,C  21,C  22)          119.0111         0.394401   
    135. A(O   8,C  21,C  22)          113.1736         0.422071   
    136. A(F   4,C  22,F   6)          107.5738         0.428185   
    137. A(F   4,C  22,F   5)          107.4102         0.427582   
    138. A(F   6,C  22,C  21)          112.8554         0.394531   
    139. A(F   5,C  22,C  21)          110.3728         0.393988   
    140. A(F   4,C  22,C  21)          110.5311         0.393159   
    141. A(F   5,C  22,F   6)          107.8916         0.429110   
    142. A(Mn  0,O  28,C  29)          125.4885         0.539283   
    143. A(C  30,C  29,C  34)          119.0566         0.394051   
    144. A(O  28,C  29,C  34)          127.4070         0.459845   
    145. A(O  28,C  29,C  30)          113.1708         0.422022   
    146. A(F  32,C  30,F  33)          108.0422         0.429430   
    147. A(F  31,C  30,F  33)          107.4297         0.428016   
    148. A(C  29,C  30,F  33)          112.8255         0.394499   
    149. A(F  31,C  30,F  32)          107.4723         0.427752   
    150. A(C  29,C  30,F  32)          110.4186         0.394261   
    151. A(C  29,C  30,F  31)          110.4515         0.392993   
    152. A(C  29,C  34,C  35)          120.2715         0.429187   
    153. A(C  35,C  34,H  52)          119.0790         0.333231   
    154. A(C  29,C  34,H  52)          119.3710         0.332878   
    155. A(O  36,C  35,C  48)          113.1752         0.422068   
    156. A(C  34,C  35,C  48)          119.0289         0.394513   
    157. A(C  34,C  35,O  36)          127.4430         0.460406   
    158. A(Mn  0,O  36,C  35)          125.4791         0.539282   
    159. A(C  38,C  37,C  42)          116.9074         0.432264   
    160. A(C  17,C  37,C  42)          121.5468         0.412677   
    161. A(C  17,C  37,C  38)          121.5233         0.412725   
    162. A(C  39,C  38,H  46)          119.7641         0.356093   
    163. A(C  37,C  38,H  46)          121.2184         0.353888   
    164. A(C  37,C  38,C  39)          119.0007         0.435173   
    165. A(N  40,C  39,H  45)          116.2399         0.358922   
    166. A(C  38,C  39,H  45)          119.5362         0.355185   
    167. A(C  38,C  39,N  40)          124.2213         0.442955   
    168. A(C  39,N  40,C  41)          116.6083         0.447894   
    169. A(C  42,C  41,H  44)          119.7086         0.355442   
    170. A(N  40,C  41,H  44)          116.2641         0.358918   
    171. A(N  40,C  41,C  42)          124.0255         0.443243   
    172. A(C  41,C  42,H  43)          119.5388         0.355957   
    173. A(C  37,C  42,H  43)          121.2247         0.353476   
    174. A(C  37,C  42,C  41)          119.2322         0.435433   
    175. A(C  55,N  47,C  59)          117.3165         0.442403   
    176. A(Mn  0,N  47,C  59)          121.3302         0.475601   
    177. A(Mn  0,N  47,C  55)          121.3512         0.475751   
    178. A(F  50,C  48,F  51)          107.8643         0.428989   
    179. A(F  49,C  48,F  51)          107.5816         0.428322   
    180. A(C  35,C  48,F  51)          112.8535         0.394511   
    181. A(F  49,C  48,F  50)          107.4383         0.427639   
    182. A(C  35,C  48,F  50)          110.3426         0.393896   
    183. A(C  35,C  48,F  49)          110.5559         0.393298   
    184. L(N  54,N  53,C  60,C  65, 2) 180.0096         0.507090   
    185. L(N  54,N  53,C  60,C  65, 1) 179.9404         0.507090   
    186. A(C  56,C  55,H  61)          120.7476         0.357469   
    187. A(N  47,C  55,H  61)          115.8884         0.357658   
    188. A(N  47,C  55,C  56)          123.3619         0.442291   
    189. A(C  57,C  56,H  62)          121.2332         0.353507   
    190. A(C  55,C  56,H  62)          119.0053         0.357876   
    191. A(C  55,C  56,C  57)          119.7451         0.436306   
    192. A(C  58,C  57,C  60)          121.9653         0.414498   
    193. A(C  56,C  57,C  60)          121.5648         0.414729   
    194. A(C  56,C  57,C  58)          116.4480         0.430421   
    195. A(C  59,C  58,H  63)          118.5971         0.357702   
    196. A(C  57,C  58,H  63)          121.4433         0.352879   
    197. A(C  57,C  58,C  59)          119.9549         0.436414   
    198. A(C  58,C  59,H  64)          120.8849         0.357766   
    199. A(N  47,C  59,H  64)          115.9425         0.357577   
    200. A(N  47,C  59,C  58)          123.1708         0.442515   
    201. A(C  57,C  60,C  65)          127.8601         0.396880   
    202. A(N  53,C  60,C  65)          115.9555         0.425413   
    203. A(N  53,C  60,C  57)          116.1827         0.428318   
    204. A(C  66,C  65,C  70)          116.9064         0.432265   
    205. A(C  60,C  65,C  70)          121.5450         0.412676   
    206. A(C  60,C  65,C  66)          121.5258         0.412719   
    207. A(C  65,C  66,C  67)          119.0012         0.435172   
    208. A(C  67,C  66,H  74)          119.7633         0.356097   
    209. A(C  65,C  66,H  74)          121.2187         0.353890   
    210. A(C  66,C  67,N  68)          124.2214         0.442956   
    211. A(N  68,C  67,H  73)          116.2395         0.358923   
    212. A(C  66,C  67,H  73)          119.5365         0.355186   
    213. A(C  67,N  68,C  69)          116.6080         0.447896   
    214. A(N  68,C  69,C  70)          124.0254         0.443243   
    215. A(C  70,C  69,H  72)          119.7083         0.355441   
    216. A(N  68,C  69,H  72)          116.2646         0.358918   
    217. A(C  69,C  70,H  71)          119.5383         0.355955   
    218. A(C  65,C  70,H  71)          121.2243         0.353478   
    219. A(C  65,C  70,C  69)          119.2329         0.435434   
    220. D(C  19,O   7,Mn  0,O   8)      0.2449         0.004798   
    221. D(C  19,O   7,Mn  0,N   9)     90.3030         0.004798   
    222. D(C  19,O   7,Mn  0,O  36)   -179.7574         0.004798   
    223. D(C  19,O   7,Mn  0,N  47)    -89.6988         0.004798   
    224. D(C  21,O   8,Mn  0,N   9)    -90.3764         0.004796   
    225. D(C  21,O   8,Mn  0,O   7)     -0.3540         0.004796   
    226. D(C  21,O   8,Mn  0,O  28)    179.6464         0.004796   
    227. D(C  21,O   8,Mn  0,N  47)     89.6282         0.004796   
    228. D(C  16,N   9,Mn  0,O  36)    135.8005         0.003143   
    229. D(C  12,N   9,Mn  0,O  36)    -43.6299         0.003143   
    230. D(C  16,N   9,Mn  0,O   8)    -44.1995         0.003143   
    231. D(C  16,N   9,Mn  0,O  28)     43.3919         0.003143   
    232. D(C  16,N   9,Mn  0,O   7)   -136.6057         0.003143   
    233. D(C  12,N   9,Mn  0,O   7)     43.9639         0.003143   
    234. D(C  12,N   9,Mn  0,O   8)    136.3702         0.003143   
    235. D(C  12,N   9,Mn  0,O  28)   -136.0385         0.003143   
    236. D(C  13,C  12,N   9,Mn  0)    179.2517         0.037858   
    237. D(H  23,C  12,N   9,C  16)    179.2791         0.037858   
    238. D(H  23,C  12,N   9,Mn  0)     -1.2686         0.037858   
    239. D(C  13,C  12,N   9,C  16)     -0.2006         0.037858   
    240. D(H  24,C  13,C  12,N   9)    178.2797         0.029619   
    241. D(C  14,C  13,C  12,H  23)   -179.7293         0.029619   
    242. D(C  14,C  13,C  12,N   9)     -0.2740         0.029619   
    243. D(H  24,C  13,C  12,H  23)     -1.1757         0.029619   
    244. D(C  17,C  14,C  13,H  24)      0.4116         0.025396   
    245. D(C  17,C  14,C  13,C  12)    178.9322         0.025396   
    246. D(C  15,C  14,C  13,H  24)   -177.9391         0.025396   
    247. D(C  15,C  14,C  13,C  12)      0.5816         0.025396   
    248. D(H  25,C  15,C  14,C  13)   -179.6387         0.025228   
    249. D(C  16,C  15,C  14,C  17)   -178.7887         0.025228   
    250. D(C  16,C  15,C  14,C  13)     -0.4452         0.025228   
    251. D(H  25,C  15,C  14,C  17)      2.0178         0.025228   
    252. D(H  26,C  16,C  15,H  25)     -0.2924         0.029907   
    253. D(H  26,C  16,N   9,C  12)    179.8616         0.037716   
    254. D(N   9,C  16,C  15,C  14)     -0.0187         0.029907   
    255. D(N   9,C  16,C  15,H  25)    179.1976         0.029907   
    256. D(C  15,C  16,N   9,C  12)      0.3484         0.037716   
    257. D(H  26,C  16,C  15,C  14)   -179.5087         0.029907   
    258. D(C  15,C  16,N   9,Mn  0)   -179.1041         0.037716   
    259. D(H  26,C  16,N   9,Mn  0)      0.4091         0.037716   
    260. D(C  37,C  17,C  14,C  15)   -160.5733         0.016427   
    261. D(C  37,C  17,C  14,C  13)     21.1674         0.016427   
    262. D(N  10,C  17,C  14,C  13)   -158.3563         0.016427   
    263. D(N  10,C  17,C  14,C  15)     19.9030         0.016427   
    264. D(C  20,C  19,C  18,F   2)    127.3695         0.010372   
    265. D(C  20,C  19,C  18,F   1)   -113.8827         0.010372   
    266. D(O   7,C  19,C  18,F   3)    179.6646         0.010372   
    267. D(O   7,C  19,C  18,F   2)    -59.2891         0.010372   
    268. D(O   7,C  19,C  18,F   1)     59.4587         0.010372   
    269. D(C  20,C  19,O   7,Mn  0)     -7.6892         0.066863   
    270. D(C  18,C  19,O   7,Mn  0)    179.6401         0.066863   
    271. D(H  27,C  20,C  19,C  18)     21.5444         0.024619   
    272. D(H  27,C  20,C  19,O   7)   -150.7456         0.024619   
    273. D(C  21,C  20,C  19,C  18)   -172.5518         0.024619   
    274. D(C  21,C  20,C  19,O   7)     15.1581         0.024619   
    275. D(C  22,C  21,C  20,H  27)    -21.6574         0.024969   
    276. D(C  22,C  21,C  20,C  19)    172.3966         0.024969   
    277. D(O   8,C  21,C  20,H  27)    150.6500         0.024969   
    278. D(C  22,C  21,O   8,Mn  0)   -179.3797         0.066904   
    279. D(C  20,C  21,O   8,Mn  0)      7.9360         0.066904   
    280. D(O   8,C  21,C  20,C  19)    -15.2961         0.024969   
    281. D(F   4,C  22,C  21,O   8)    -58.4664         0.010379   
    282. D(F   4,C  22,C  21,C  20)    114.8934         0.010379   
    283. D(F   6,C  22,C  21,O   8)   -178.9795         0.010379   
    284. D(F   5,C  22,C  21,C  20)   -126.4278         0.010379   
    285. D(F   5,C  22,C  21,O   8)     60.2123         0.010379   
    286. D(C  29,O  28,O   7,C  19)    179.9855         0.001500   
    287. D(C  29,O  28,Mn  0,N  47)    -90.3155         0.004799   
    288. D(C  29,O  28,Mn  0,O  36)     -0.2568         0.004799   
    289. D(C  29,O  28,Mn  0,N   9)     89.6828         0.004799   
    290. D(C  29,O  28,Mn  0,O   8)    179.7408         0.004799   
    291. D(C  34,C  29,O  28,Mn  0)      7.4298         0.066857   
    292. D(C  30,C  29,O  28,Mn  0)   -179.6500         0.066857   
    293. D(F  33,C  30,C  29,O  28)   -179.6590         0.010372   
    294. D(F  32,C  30,C  29,C  34)   -127.1032         0.010372   
    295. D(F  32,C  30,C  29,O  28)     59.3274         0.010372   
    296. D(F  31,C  30,C  29,C  34)    114.1622         0.010372   
    297. D(F  31,C  30,C  29,O  28)    -59.4071         0.010372   
    298. D(H  52,C  34,C  29,C  30)    -20.2227         0.024721   
    299. D(H  52,C  34,C  29,O  28)    152.3294         0.024721   
    300. D(C  35,C  34,C  29,C  30)    172.8073         0.024721   
    301. D(C  35,C  34,C  29,O  28)    -14.6406         0.024721   
    302. D(C  48,C  35,C  34,H  52)     20.4684         0.025055   
    303. D(C  48,C  35,C  34,C  29)   -172.5238         0.025055   
    304. D(O  36,C  35,C  34,H  52)   -152.2129         0.025055   
    305. D(O  36,C  35,C  34,C  29)     14.7949         0.025055   
    306. D(Mn  0,O  36,C  35,C  34)     -7.7066         0.066902   
    307. D(C  35,O  36,O   8,C  21)   -179.9714         0.001500   
    308. D(C  35,O  36,Mn  0,N  47)     90.3987         0.004797   
    309. D(C  35,O  36,Mn  0,O  28)      0.3804         0.004797   
    310. D(Mn  0,O  36,C  35,C  48)    179.2526         0.066902   
    311. D(C  35,O  36,Mn  0,N   9)    -89.5967         0.004797   
    312. D(C  35,O  36,Mn  0,O   7)   -179.6193         0.004797   
    313. D(C  42,C  37,C  17,C  14)   -151.0522         0.015227   
    314. D(C  42,C  37,C  17,N  10)     28.4724         0.015227   
    315. D(C  38,C  37,C  17,C  14)     30.7250         0.015227   
    316. D(C  38,C  37,C  17,N  10)   -149.7504         0.015227   
    317. D(H  46,C  38,C  37,C  42)   -177.8365         0.025974   
    318. D(H  46,C  38,C  37,C  17)      0.4651         0.025974   
    319. D(C  39,C  38,C  37,C  42)      0.6700         0.025974   
    320. D(C  39,C  38,C  37,C  17)    178.9716         0.025974   
    321. D(H  45,C  39,C  38,H  46)     -1.3566         0.028075   
    322. D(H  45,C  39,C  38,C  37)   -179.8854         0.028075   
    323. D(N  40,C  39,C  38,H  46)    178.0370         0.028075   
    324. D(N  40,C  39,C  38,C  37)     -0.4917         0.028075   
    325. D(C  41,N  40,C  39,H  45)    179.2854         0.036866   
    326. D(C  41,N  40,C  39,C  38)     -0.1264         0.036866   
    327. D(H  44,C  41,N  40,C  39)   -179.9271         0.036836   
    328. D(C  42,C  41,N  40,C  39)      0.5554         0.036836   
    329. D(H  43,C  42,C  41,H  44)     -0.5983         0.028314   
    330. D(H  43,C  42,C  41,N  40)    178.9035         0.028314   
    331. D(C  37,C  42,C  41,H  44)   -179.8525         0.028314   
    332. D(C  37,C  42,C  41,N  40)     -0.3507         0.028314   
    333. D(H  43,C  42,C  37,C  38)   -179.5252         0.025938   
    334. D(H  43,C  42,C  37,C  17)      2.1736         0.025938   
    335. D(C  41,C  42,C  37,C  38)     -0.2841         0.025938   
    336. D(C  41,C  42,C  37,C  17)   -178.5853         0.025938   
    337. D(C  55,N  47,N   9,C  12)   -179.9805         0.001500   
    338. D(C  59,N  47,Mn  0,O  36)     44.1957         0.003144   
    339. D(C  59,N  47,Mn  0,O  28)    136.6043         0.003144   
    340. D(C  59,N  47,Mn  0,O   8)   -135.8044         0.003144   
    341. D(C  59,N  47,Mn  0,O   7)    -43.3981         0.003144   
    342. D(C  55,N  47,Mn  0,O  36)   -136.3533         0.003144   
    343. D(C  55,N  47,Mn  0,O  28)    -43.9447         0.003144   
    344. D(C  55,N  47,Mn  0,O   8)     43.6467         0.003144   
    345. D(C  55,N  47,N   9,C  16)     -0.5528         0.001500   
    346. D(C  55,N  47,Mn  0,O   7)    136.0529         0.003144   
    347. D(C  59,N  47,N   9,C  16)    179.9935         0.001500   
    348. D(C  59,N  47,N   9,C  12)      0.5658         0.001500   
    349. D(F  51,C  48,C  35,C  34)      4.7444         0.010378   
    350. D(F  50,C  48,C  35,O  36)    -60.8217         0.010378   
    351. D(F  50,C  48,C  35,C  34)    125.4948         0.010378   
    352. D(F  49,C  48,C  35,O  36)     57.8886         0.010378   
    353. D(F  49,C  48,C  35,C  34)   -115.7950         0.010378   
    354. D(H  61,C  55,N  47,C  59)   -179.2775         0.037859   
    355. D(H  61,C  55,N  47,Mn  0)      1.2503         0.037859   
    356. D(C  56,C  55,N  47,C  59)      0.1923         0.037859   
    357. D(C  56,C  55,N  47,Mn  0)   -179.2799         0.037859   
    358. D(H  62,C  56,C  55,H  61)      1.1814         0.029621   
    359. D(H  62,C  56,C  55,N  47)   -178.2636         0.029621   
    360. D(C  57,C  56,C  55,H  61)    179.7258         0.029621   
    361. D(C  57,C  56,C  55,N  47)      0.2808         0.029621   
    362. D(C  60,C  57,C  56,H  62)     -0.4055         0.025395   
    363. D(C  60,C  57,C  56,C  55)   -178.9167         0.025395   
    364. D(C  58,C  57,C  56,H  62)    177.9267         0.025395   
    365. D(C  58,C  57,C  56,C  55)     -0.5845         0.025395   
    366. D(H  63,C  58,C  57,C  60)     -2.0352         0.025227   
    367. D(H  63,C  58,C  57,C  56)    179.6399         0.025227   
    368. D(C  59,C  58,C  57,C  60)    178.7713         0.025227   
    369. D(C  59,C  58,C  57,C  56)      0.4464         0.025227   
    370. D(H  64,C  59,C  58,H  63)      0.2958         0.029909   
    371. D(H  64,C  59,C  58,C  57)    179.5121         0.029909   
    372. D(N  47,C  59,C  58,H  63)   -179.2005         0.029909   
    373. D(N  47,C  59,C  58,C  57)      0.0158         0.029909   
    374. D(H  64,C  59,N  47,C  55)   -179.8614         0.037718   
    375. D(H  64,C  59,N  47,Mn  0)     -0.3890         0.037718   
    376. D(C  58,C  59,N  47,C  55)     -0.3421         0.037718   
    377. D(C  58,C  59,N  47,Mn  0)    179.1303         0.037718   
    378. D(C  65,C  60,C  57,C  58)    160.5784         0.016428   
    379. D(C  65,C  60,C  57,C  56)    -21.1818         0.016428   
    380. D(N  53,C  60,C  57,C  58)    -19.9161         0.016428   
    381. D(N  53,C  60,C  57,C  56)    158.3237         0.016428   
    382. D(C  70,C  65,C  60,C  57)    150.9845         0.015226   
    383. D(C  70,C  65,C  60,N  53)    -28.5220         0.015226   
    384. D(C  66,C  65,C  60,C  57)    -30.8076         0.015226   
    385. D(C  66,C  65,C  60,N  53)    149.6859         0.015226   
    386. D(H  74,C  66,C  65,C  70)    177.8218         0.025972   
    387. D(H  74,C  66,C  65,C  60)     -0.4655         0.025972   
    388. D(C  67,C  66,C  65,C  70)     -0.6802         0.025972   
    389. D(C  67,C  66,C  65,C  60)   -178.9676         0.025972   
    390. D(H  73,C  67,C  66,H  74)      1.3600         0.028075   
    391. D(H  73,C  67,C  66,C  65)    179.8843         0.028075   
    392. D(N  68,C  67,C  66,H  74)   -178.0300         0.028075   
    393. D(N  68,C  67,C  66,C  65)      0.4942         0.028075   
    394. D(C  69,N  68,C  67,H  73)   -179.2796         0.036867   
    395. D(C  69,N  68,C  67,C  66)      0.1288         0.036867   
    396. D(H  72,C  69,N  68,C  67)    179.9241         0.036837   
    397. D(C  70,C  69,N  68,C  67)     -0.5546         0.036837   
    398. D(H  71,C  70,C  69,H  72)      0.5999         0.028312   
    399. D(H  71,C  70,C  69,N  68)   -178.9059         0.028312   
    400. D(C  65,C  70,C  69,H  72)    179.8476         0.028312   
    401. D(C  65,C  70,C  69,N  68)      0.3418         0.028312   
    402. D(H  71,C  70,C  65,C  66)    179.5318         0.025939   
    403. D(H  71,C  70,C  65,C  60)     -2.1812         0.025939   
    404. D(C  69,C  70,C  65,C  66)      0.2972         0.025939   
    405. D(C  69,C  70,C  65,C  60)    178.5842         0.025939   
    -----------------------------------------------------------------

Number of atoms                         .... 75
Number of degrees of freedom            .... 405


         *************************************************************
         *                GEOMETRY OPTIMIZATION CYCLE   1            *
         *************************************************************
---------------------------------
CARTESIAN COORDINATES (ANGSTROEM)
---------------------------------
  Mn     8.337607   -5.294596    6.517482
  F      5.392480   -5.640429   10.048202
  F      4.168945   -6.043293    8.320084
  F      4.056017   -4.124984    9.303412
  F      8.207085   -0.700454    6.846489
  F      6.948750   -1.121363    5.148515
  F      6.063094   -0.603025    7.045973
  O      6.801644   -5.518827    7.671665
  O      8.007877   -3.399756    6.310699
  N      9.504280   -4.916328    8.142360
  N     12.483695   -2.947371   11.613135
  N     12.928177   -1.916680   11.678566
  C      9.411776   -5.655940    9.253004
  C     10.190876   -5.446080   10.370528
  C     11.139189   -4.418828   10.372017
  C     11.223219   -3.646728    9.208515
  C     10.402565   -3.924651    8.138100
  C     11.966728   -4.147598   11.538256
  C      4.886224   -5.099908    8.932763
  C      6.011483   -4.606494    8.019521
  C      6.142645   -3.230737    7.783160
  C      7.059828   -2.763394    6.833931
  C      7.059026   -1.276451    6.470079
  H      8.669181   -6.444254    9.235737
  H     10.037662   -6.068953   11.241068
  H     11.933726   -2.833761    9.119824
  H     10.460395   -3.341666    7.227197
  H      5.668160   -2.460949    8.552939
  O      9.873540   -5.070286    5.363317
  C     10.663858   -5.982573    5.015660
  C     11.788922   -5.489181    4.102169
  F     11.282689   -4.947962    2.986901
  F     12.506302   -4.546137    4.715082
  F     12.619256   -6.464044    3.731610
  C     10.535906   -7.357351    5.256284
  C      9.615733   -7.825638    6.201487
  O      8.667380   -7.189402    6.724326
  C     12.284642   -5.053353   12.646029
  C     12.368415   -6.433358   12.458864
  C     12.693505   -7.238899   13.537827
  N     12.945483   -6.784357   14.760433
  C     12.876980   -5.468680   14.931995
  C     12.553290   -4.572530   13.928057
  H     12.501058   -3.513326   14.153457
  H     13.085255   -5.102948   15.933668
  H     12.762969   -8.314647   13.401438
  H     12.207988   -6.878253   11.485152
  N      7.171112   -5.672893    4.892564
  C      9.618334   -9.312004    6.567711
  F      8.466286   -9.887299    6.204624
  F      9.742968   -9.464486    7.888662
  F     10.607674   -9.987604    5.982902
  H     11.027966   -8.121404    4.510695
  N      4.194221   -7.643188    1.420573
  N      3.750345   -8.674131    1.355050
  C      7.264014   -4.933429    3.781863
  C      6.485476   -5.143578    2.664016
  C      5.537229   -6.170899    2.662280
  C      5.452749   -6.942788    3.825896
  C      6.272881   -6.664612    4.896636
  C      4.710493   -6.442677    1.495612
  H      8.006586   -4.145094    3.799301
  H      6.639198   -4.520970    1.793397
  H      4.742272   -7.755792    3.914397
  H      6.214741   -7.247461    5.807611
  C      4.392978   -5.537343    0.387359
  C      4.306995   -4.157444    0.574352
  C      3.982317   -3.352393   -0.505098
  N      3.732680   -3.807325   -1.728037
  C      3.803181   -5.122915   -1.899433
  C      4.126625   -6.018585   -0.894981
  H      4.180551   -7.077734   -1.120249
  H      3.596767   -5.488986   -2.901367
  H      3.911128   -2.276742   -0.368845
  H      4.465328   -3.712298    1.548273

----------------------------
CARTESIAN COORDINATES (A.U.)
----------------------------
  NO LB      ZA    FRAG     MASS         X           Y           Z
   0 Mn   25.0000    0    54.940   15.755794  -10.005336   12.316257
   1 F     9.0000    0    18.998   10.190311  -10.658865   18.988349
   2 F     9.0000    0    18.998    7.878165  -11.420168   15.722680
   3 F     9.0000    0    18.998    7.664761   -7.795090   17.580901
   4 F     9.0000    0    18.998   15.509143   -1.323667   12.937990
   5 F     9.0000    0    18.998   13.131234   -2.119069    9.729282
   6 F     9.0000    0    18.998   11.457587   -1.139553   13.314960
   7 O     8.0000    0    15.999   12.853245  -10.429071   14.497345
   8 O     8.0000    0    15.999   15.132695   -6.424608   11.925493
   9 N     7.0000    0    14.007   17.960486   -9.290514   15.386831
  10 N     7.0000    0    14.007   23.590765   -5.569724   21.945645
  11 N     7.0000    0    14.007   24.430713   -3.622001   22.069292
  12 C     6.0000    0    12.011   17.785679  -10.688178   17.485643
  13 C     6.0000    0    12.011   19.257965  -10.291600   19.597457
  14 C     6.0000    0    12.011   21.050016   -8.350374   19.600272
  15 C     6.0000    0    12.011   21.208810   -6.891317   17.401571
  16 C     6.0000    0    12.011   19.657998   -7.416515   15.378780
  17 C     6.0000    0    12.011   22.613839   -7.837824   21.804143
  18 C     6.0000    0    12.011    9.233625   -9.637430   16.880476
  19 C     6.0000    0    12.011   11.360057   -8.705011   15.154698
  20 C     6.0000    0    12.011   11.607917   -6.105208   14.708041
  21 C     6.0000    0    12.011   13.341142   -5.222059   12.914258
  22 C     6.0000    0    12.011   13.339626   -2.412142   12.226678
  23 H     1.0000    0     1.008   16.382378  -12.177876   17.453014
  24 H     1.0000    0     1.008   18.968433  -11.468659   21.242539
  25 H     1.0000    0     1.008   22.551473   -5.355033   17.233971
  26 H     1.0000    0     1.008   19.767282   -6.314834   13.657423
  27 H     1.0000    0     1.008   10.711270   -4.650519   16.162712
  28 O     8.0000    0    15.999   18.658286   -9.581453   10.135199
  29 C     6.0000    0    12.011   20.151771  -11.305425    9.478224
  30 C     6.0000    0    12.011   22.277834  -10.373049    7.751976
  31 F     9.0000    0    18.998   21.321193   -9.350293    5.644425
  32 F     9.0000    0    18.998   23.633486   -8.590954    8.910214
  33 F     9.0000    0    18.998   23.846938  -12.215273    7.051721
  34 C     6.0000    0    12.011   19.909978  -13.903378    9.932936
  35 C     6.0000    0    12.011   18.171103  -14.788313   11.719111
  36 O     8.0000    0    15.999   16.378975  -13.586000   12.707135
  37 C     6.0000    0    12.011   23.214609   -9.549454   23.897531
  38 C     6.0000    0    12.011   23.372917  -12.157285   23.543841
  39 C     6.0000    0    12.011   23.987249  -13.679537   25.582786
  40 N     7.0000    0    14.007   24.463418  -12.820577   27.893176
  41 C     6.0000    0    12.011   24.333966  -10.334307   28.217381
  42 C     6.0000    0    12.011   23.722280   -8.640830   26.320213
  43 H     1.0000    0     1.008   23.623576   -6.639223   26.746157
  44 H     1.0000    0     1.008   24.727549   -9.643174   30.110268
  45 H     1.0000    0     1.008   24.118516  -15.712407   25.325048
  46 H     1.0000    0     1.008   23.069753  -12.998014   21.703792
  47 N     7.0000    0    14.007   13.551438  -10.720214    9.245606
  48 C     6.0000    0    12.011   18.176016  -17.597138   12.411175
  49 F     9.0000    0    18.998   15.998963  -18.684288   11.725041
  50 F     9.0000    0    18.998   18.411541  -17.885287   14.907410
  51 F     9.0000    0    18.998   20.045600  -18.873836   11.306046
  52 H     1.0000    0     1.008   20.839835  -15.347229    8.523979
  53 N     7.0000    0    14.007    7.925930  -14.443532    2.684493
  54 N     7.0000    0    14.007    7.087124  -16.391732    2.560673
  55 C     6.0000    0    12.011   13.726997   -9.322829    7.146685
  56 C     6.0000    0    12.011   12.255773   -9.719954    5.034260
  57 C     6.0000    0    12.011   10.463846  -11.661310    5.030980
  58 C     6.0000    0    12.011   10.304202  -13.119967    7.229895
  59 C     6.0000    0    12.011   11.854028  -12.594292    9.253301
  60 C     6.0000    0    12.011    8.901542  -12.174896    2.826297
  61 H     1.0000    0     1.008   15.130256   -7.833093    7.179638
  62 H     1.0000    0     1.008   12.546265   -8.543396    3.389029
  63 H     1.0000    0     1.008    8.961596  -14.656324    7.397139
  64 H     1.0000    0     1.008   11.744158  -13.695717   10.974795
  65 C     6.0000    0    12.011    8.301525  -10.464062    0.732003
  66 C     6.0000    0    12.011    8.139041   -7.856431    1.085368
  67 C     6.0000    0    12.011    7.525489   -6.335104   -0.954497
  68 N     7.0000    0    14.007    7.053744   -7.194801   -3.265516
  69 C     6.0000    0    12.011    7.186971   -9.680906   -3.589408
  70 C     6.0000    0    12.011    7.798192  -11.373477   -1.691268
  71 H     1.0000    0     1.008    7.900097  -13.374980   -2.116964
  72 H     1.0000    0     1.008    6.796905  -10.372680   -5.482789
  73 H     1.0000    0     1.008    7.390961   -4.302419   -0.697016
  74 H     1.0000    0     1.008    8.438246   -7.015227    2.925811

--------------------------------
INTERNAL COORDINATES (ANGSTROEM)
--------------------------------
 Mn     0   0   0     0.000000000000     0.00000000     0.00000000
 F      1   0   0     4.610786207373     0.00000000     0.00000000
 F      2   1   0     2.155395147376    76.27034745     0.00000000
 F      2   1   3     2.153466513645    94.51902688   302.25021417
 F      1   2   3     4.607756027017    90.11534768   103.57456060
 F      5   1   2     2.154922315175    76.43971561   257.14932783
 F      5   1   2     2.155454888561    94.58003984   314.84919264
 O      1   2   3     1.934321001327    13.39142280     1.48080838
 O      1   2   3     1.934398240659    92.66236381    90.68752030
 N      1   2   3     2.035789861512    76.63232407   180.11318704
 N     10   1   2     4.979958594115   166.55700273   242.91547518
 N     11  10   1     1.124352377785   129.75549608     1.52752818
 C     10   1   2     1.337576701666   121.35676390    43.64720555
 C     13  10   1     1.378367760174   123.36204440   179.25172807
 C     14  13  10     1.398051257268   119.74488153   359.72601830
 C     15  14  13     1.398905630766   116.44919711     0.58155598
 C     10   1   2     1.338042800020   121.32572696   223.07758258
 C     11  10  13     1.308971120964    50.30618776    18.81330724
 C      4   2   1     1.333079908983    36.39036483    33.63451415
 C      8   1   9     1.256069086715   125.49055567     0.24494283
 C     20   8   1     1.402061486019   127.38561737   352.31084077
 C      9   1   2     1.255995274735   125.48074082   346.24389376
 C      7   5   1     1.333055440921    36.29809954   326.37045943
 H     13  10   1     1.083136841199   115.88826115   358.73141455
 H     14  13  10     1.081334609992   119.00733512   178.27965591
 H     16  15  14     1.083328206268   121.44475499   180.36129872
 H     17  10   1     1.083032696944   115.94275931     0.40910485
 H     21  20   8     1.187547697846   119.30128154   209.25436627
 O      1   2   3     1.934296376503   166.60830987   181.47041365
 C     29   1   8     1.256079093436   125.48845148   172.02084627
 C     30  29   1     1.530905154592   113.17079483   180.34997719
 F     31  30  29     1.339034007356   110.45149844   300.59288613
 F     31  30  29     1.334027847879   110.41856137    59.32740129
 F     31  30  29     1.333089264217   112.82551345   180.34097237
 C     30  29   1     1.401529699205   127.40701378     7.42981272
 C     35  30  29     1.399792885525   120.27152453   345.35940613
 O     36  35  30     1.255998193215   127.44296044    14.79493544
 C     18  11  10     1.465818477818   115.95690104   181.15464656
 C     38  18  11     1.395156439933   121.52334075   210.24961552
 C     39  38  18     1.385186537459   119.00071605   178.97163468
 N     40  39  38     1.328482665250   124.22131172   359.50831955
 C     41  40  39     1.328583171740   116.60826004   359.87356986
 C     42  41  40     1.384106755486   124.02554147     0.55541553
 H     43  42  41     1.084180657802   119.53878392   178.90348064
 H     42  41  40     1.086501704259   116.26414396   180.07288413
 H     40  39  38     1.086582369639   119.53616755   180.11463865
 H     39  38  18     1.082489381696   121.21842081     0.46508474
 N      1   2   3     2.035725353114   103.37222042     0.11135267
 C     36  35  30     1.530820517727   119.02887947   187.47617973
 F     49  36  35     1.337912152775   110.55590430   244.20502573
 F     49  36  35     1.335550871741   110.34263617   125.49479734
 F     49  36  35     1.333128422143   112.85347261     4.74441436
 H     35  30  29     1.175500314779   119.37102015   152.32944189
 N     48   1   2     4.979825819663   166.55167457   296.95319066
 N     54  48   1     1.124350336943   129.74824487   358.58832064
 C     48   1   2     1.337570999958   121.35122433   136.37006896
 C     56  48   1     1.378356165357   123.36187855   180.72006854
 C     57  56  48     1.398057700205   119.74512618     0.28081762
 C     58  57  56     1.398910455631   116.44798853   359.41549660
 C     48   1   2     1.338036755686   121.33015342   316.91901564
 C     54  48  56     1.308966589953    50.31119704   341.16819735
 H     56  48   1     1.083138678653   115.88837519     1.25026927
 H     57  56  48     1.081317342792   119.00526570   181.73642182
 H     59  58  57     1.083321739103   121.44328883   179.63986520
 H     60  48   1     1.083037103980   115.94253058   359.61099895
 C     61  54  48     1.465834138144   115.95554843   178.81898464
 C     66  61  54     1.395163254011   121.52578876   149.68593467
 C     67  66  61     1.385184548827   119.00115903   181.03243502
 N     68  67  66     1.328480387936   124.22139195     0.49422458
 C     69  68  67     1.328579566156   116.60801111     0.12880660
 C     70  69  68     1.384111837967   124.02543983   359.44544140
 H     71  70  69     1.084182387109   119.53834469   181.09411597
 H     70  69  68     1.086502136610   116.26456555   179.92409797
 H     68  67  66     1.086580366995   119.53654406   179.88429652
 H     67  66  61     1.082472040470   121.21868927   359.53445662

---------------------------
INTERNAL COORDINATES (A.U.)
---------------------------
 Mn     0   0   0     0.000000000000     0.00000000     0.00000000
 F      1   0   0     8.713123193996     0.00000000     0.00000000
 F      2   1   0     4.073106538924    76.27034745     0.00000000
 F      2   1   3     4.069461949360    94.51902688   302.25021417
 F      1   2   3     8.707396982987    90.11534768   103.57456060
 F      5   1   2     4.072213015557    76.43971561   257.14932783
 F      5   1   2     4.073219433402    94.58003984   314.84919264
 O      1   2   3     3.655336947600    13.39142280     1.48080838
 O      1   2   3     3.655482908785    92.66236381    90.68752030
 N      1   2   3     3.847085304471    76.63232407   180.11318704
 N     10   1   2     9.410757901145   166.55700273   242.91547518
 N     11  10   1     2.124718072038   129.75549608     1.52752818
 C     10   1   2     2.527653649263   121.35676390    43.64720555
 C     13  10   1     2.604737578554   123.36204440   179.25172807
 C     14  13  10     2.641933997421   119.74488153   359.72601830
 C     15  14  13     2.643548529348   116.44919711     0.58155598
 C     10   1   2     2.528534447503   121.32572696   223.07758258
 C     11  10  13     2.473596935833    50.30618776    18.81330724
 C      4   2   1     2.519155942611    36.39036483    33.63451415
 C      8   1   9     2.373626579177   125.49055567     0.24494283
 C     20   8   1     2.649512231494   127.38561737   352.31084077
 C      9   1   2     2.373487094749   125.48074082   346.24389376
 C      7   5   1     2.519109704673    36.29809954   326.37045943
 H     13  10   1     2.046831995427   115.88826115   358.73141455
 H     14  13  10     2.043426272016   119.00733512   178.27965591
 H     16  15  14     2.047193622998   121.44475499   180.36129872
 H     17  10   1     2.046635191306   115.94275931     0.40910485
 H     21  20   8     2.244139919897   119.30128154   209.25436627
 O      1   2   3     3.655290413426   166.60830987   181.47041365
 C     29   1   8     2.373645489138   125.48845148   172.02084627
 C     30  29   1     2.892991479187   113.17079483   180.34997719
 F     31  30  29     2.530407557911   110.45149844   300.59288613
 F     31  30  29     2.520947287516   110.41856137    59.32740129
 F     31  30  29     2.519173621441   112.82551345   180.34097237
 C     30  29   1     2.648507300054   127.40701378     7.42981272
 C     35  30  29     2.645225197854   120.27152453   345.35940613
 O     36  35  30     2.373492609877   127.44296044    14.79493544
 C     18  11  10     2.769995485117   115.95690104   181.15464656
 C     38  18  11     2.636463585450   121.52334075   210.24961552
 C     39  38  18     2.617623200191   119.00071605   178.97163468
 N     40  39  38     2.510468410985   124.22131172   359.50831955
 C     41  40  39     2.510658340726   116.60826004   359.87356986
 C     42  41  40     2.615582707980   124.02554147     0.55541553
 H     43  42  41     2.048804522940   119.53878392   178.90348064
 H     42  41  40     2.053190665088   116.26414396   180.07288413
 H     40  39  38     2.053343100565   119.53616755   180.11463865
 H     39  38  18     2.045608474284   121.21842081     0.46508474
 N      1   2   3     3.846963401265   103.37222042     0.11135267
 C     36  35  30     2.892831538692   119.02887947   187.47617973
 F     49  36  35     2.528287559990   110.55590430   244.20502573
 F     49  36  35     2.523825385509   110.34263617   125.49479734
 F     49  36  35     2.519247619197   112.85347261     4.74441436
 H     35  30  29     2.221373665271   119.37102015   152.32944189
 N     48   1   2     9.410506993793   166.55167457   296.95319066
 N     54  48   1     2.124714215405   129.74824487   358.58832064
 C     48   1   2     2.527642874596   121.35122433   136.37006896
 C     56  48   1     2.604715667526   123.36187855   180.72006854
 C     57  56  48     2.641946172808   119.74512618     0.28081762
 C     58  57  56     2.643557647021   116.44798853   359.41549660
 C     48   1   2     2.528523025366   121.33015342   316.91901564
 C     54  48  56     2.473588373465    50.31119704   341.16819735
 H     56  48   1     2.046835467711   115.88837519     1.25026927
 H     57  56  48     2.043393641737   119.00526570   181.73642182
 H     59  58  57     2.047181401828   121.44328883   179.63986520
 H     60  48   1     2.046643519397   115.94253058   359.61099895
 C     61  54  48     2.770025078845   115.95554843   178.81898464
 C     66  61  54     2.636476462192   121.52578876   149.68593467
 C     67  66  61     2.617619442222   119.00115903   181.03243502
 N     68  67  66     2.510464107485   124.22139195     0.49422458
 C     69  68  67     2.510651527159   116.60801111     0.12880660
 C     70  69  68     2.615592312476   124.02543983   359.44544140
 H     71  70  69     2.048807790857   119.53834469   181.09411597
 H     70  69  68     2.053191482113   116.26456555   179.92409797
 H     68  67  66     2.053339316116   119.53654406   179.88429652
 H     67  66  61     2.045575704114   121.21868927   359.53445662

---------------------
BASIS SET INFORMATION
---------------------
There are 6 groups of distinct atoms

 Group   1 Type Mn  : 17s11p7d1f contracted to 6s4p4d1f pattern {842111/6311/4111/1}
 Group   2 Type F   : 11s6p2d1f contracted to 5s3p2d1f pattern {62111/411/11/1}
 Group   3 Type O   : 11s6p2d1f contracted to 5s3p2d1f pattern {62111/411/11/1}
 Group   4 Type N   : 11s6p2d1f contracted to 5s3p2d1f pattern {62111/411/11/1}
 Group   5 Type C   : 11s6p2d1f contracted to 5s3p2d1f pattern {62111/411/11/1}
 Group   6 Type H   : 5s1p contracted to 3s1p pattern {311/1}

Atom   0Mn   basis set group =>   1
Atom   1F    basis set group =>   2
Atom   2F    basis set group =>   2
Atom   3F    basis set group =>   2
Atom   4F    basis set group =>   2
Atom   5F    basis set group =>   2
Atom   6F    basis set group =>   2
Atom   7O    basis set group =>   3
Atom   8O    basis set group =>   3
Atom   9N    basis set group =>   4
Atom  10N    basis set group =>   4
Atom  11N    basis set group =>   4
Atom  12C    basis set group =>   5
Atom  13C    basis set group =>   5
Atom  14C    basis set group =>   5
Atom  15C    basis set group =>   5
Atom  16C    basis set group =>   5
Atom  17C    basis set group =>   5
Atom  18C    basis set group =>   5
Atom  19C    basis set group =>   5
Atom  20C    basis set group =>   5
Atom  21C    basis set group =>   5
Atom  22C    basis set group =>   5
Atom  23H    basis set group =>   6
Atom  24H    basis set group =>   6
Atom  25H    basis set group =>   6
Atom  26H    basis set group =>   6
Atom  27H    basis set group =>   6
Atom  28O    basis set group =>   3
Atom  29C    basis set group =>   5
Atom  30C    basis set group =>   5
Atom  31F    basis set group =>   2
Atom  32F    basis set group =>   2
Atom  33F    basis set group =>   2
Atom  34C    basis set group =>   5
Atom  35C    basis set group =>   5
Atom  36O    basis set group =>   3
Atom  37C    basis set group =>   5
Atom  38C    basis set group =>   5
Atom  39C    basis set group =>   5
Atom  40N    basis set group =>   4
Atom  41C    basis set group =>   5
Atom  42C    basis set group =>   5
Atom  43H    basis set group =>   6
Atom  44H    basis set group =>   6
Atom  45H    basis set group =>   6
Atom  46H    basis set group =>   6
Atom  47N    basis set group =>   4
Atom  48C    basis set group =>   5
Atom  49F    basis set group =>   2
Atom  50F    basis set group =>   2
Atom  51F    basis set group =>   2
Atom  52H    basis set group =>   6
Atom  53N    basis set group =>   4
Atom  54N    basis set group =>   4
Atom  55C    basis set group =>   5
Atom  56C    basis set group =>   5
Atom  57C    basis set group =>   5
Atom  58C    basis set group =>   5
Atom  59C    basis set group =>   5
Atom  60C    basis set group =>   5
Atom  61H    basis set group =>   6
Atom  62H    basis set group =>   6
Atom  63H    basis set group =>   6
Atom  64H    basis set group =>   6
Atom  65C    basis set group =>   5
Atom  66C    basis set group =>   5
Atom  67C    basis set group =>   5
Atom  68N    basis set group =>   4
Atom  69C    basis set group =>   5
Atom  70C    basis set group =>   5
Atom  71H    basis set group =>   6
Atom  72H    basis set group =>   6
Atom  73H    basis set group =>   6
Atom  74H    basis set group =>   6
---------------------------------
AUXILIARY/J BASIS SET INFORMATION
---------------------------------
There are 6 groups of distinct atoms

 Group   1 Type Mn  : 19s5p5d3f3g contracted to 8s5p5d2f3g pattern {121111111/11111/11111/21/111}
 Group   2 Type F   : 12s5p4d2f1g contracted to 6s4p3d1f1g pattern {711111/2111/211/2/1}
 Group   3 Type O   : 12s5p4d2f1g contracted to 6s4p3d1f1g pattern {711111/2111/211/2/1}
 Group   4 Type N   : 12s5p4d2f1g contracted to 6s4p3d1f1g pattern {711111/2111/211/2/1}
 Group   5 Type C   : 12s5p4d2f1g contracted to 6s4p3d1f1g pattern {711111/2111/211/2/1}
 Group   6 Type H   : 5s2p1d contracted to 3s1p1d pattern {311/2/1}

Atom   0Mn   basis set group =>   1
Atom   1F    basis set group =>   2
Atom   2F    basis set group =>   2
Atom   3F    basis set group =>   2
Atom   4F    basis set group =>   2
Atom   5F    basis set group =>   2
Atom   6F    basis set group =>   2
Atom   7O    basis set group =>   3
Atom   8O    basis set group =>   3
Atom   9N    basis set group =>   4
Atom  10N    basis set group =>   4
Atom  11N    basis set group =>   4
Atom  12C    basis set group =>   5
Atom  13C    basis set group =>   5
Atom  14C    basis set group =>   5
Atom  15C    basis set group =>   5
Atom  16C    basis set group =>   5
Atom  17C    basis set group =>   5
Atom  18C    basis set group =>   5
Atom  19C    basis set group =>   5
Atom  20C    basis set group =>   5
Atom  21C    basis set group =>   5
Atom  22C    basis set group =>   5
Atom  23H    basis set group =>   6
Atom  24H    basis set group =>   6
Atom  25H    basis set group =>   6
Atom  26H    basis set group =>   6
Atom  27H    basis set group =>   6
Atom  28O    basis set group =>   3
Atom  29C    basis set group =>   5
Atom  30C    basis set group =>   5
Atom  31F    basis set group =>   2
Atom  32F    basis set group =>   2
Atom  33F    basis set group =>   2
Atom  34C    basis set group =>   5
Atom  35C    basis set group =>   5
Atom  36O    basis set group =>   3
Atom  37C    basis set group =>   5
Atom  38C    basis set group =>   5
Atom  39C    basis set group =>   5
Atom  40N    basis set group =>   4
Atom  41C    basis set group =>   5
Atom  42C    basis set group =>   5
Atom  43H    basis set group =>   6
Atom  44H    basis set group =>   6
Atom  45H    basis set group =>   6
Atom  46H    basis set group =>   6
Atom  47N    basis set group =>   4
Atom  48C    basis set group =>   5
Atom  49F    basis set group =>   2
Atom  50F    basis set group =>   2
Atom  51F    basis set group =>   2
Atom  52H    basis set group =>   6
Atom  53N    basis set group =>   4
Atom  54N    basis set group =>   4
Atom  55C    basis set group =>   5
Atom  56C    basis set group =>   5
Atom  57C    basis set group =>   5
Atom  58C    basis set group =>   5
Atom  59C    basis set group =>   5
Atom  60C    basis set group =>   5
Atom  61H    basis set group =>   6
Atom  62H    basis set group =>   6
Atom  63H    basis set group =>   6
Atom  64H    basis set group =>   6
Atom  65C    basis set group =>   5
Atom  66C    basis set group =>   5
Atom  67C    basis set group =>   5
Atom  68N    basis set group =>   4
Atom  69C    basis set group =>   5
Atom  70C    basis set group =>   5
Atom  71H    basis set group =>   6
Atom  72H    basis set group =>   6
Atom  73H    basis set group =>   6
Atom  74H    basis set group =>   6


           ************************************************************
           *        Program running with 32 parallel MPI-processes    *
           *              working on a common directory               *
           ************************************************************
------------------------------------------------------------------------------
                             ORCA STARTUP CALCULATIONS
                           -- RI-GTO INTEGRALS CHOSEN --
------------------------------------------------------------------------------
------------------------------------------------------------------------------
                   ___                                                        
                  /   \      - P O W E R E D   B Y -                         
                 /     \                                                     
                 |  |  |   _    _      __       _____    __    __             
                 |  |  |  | |  | |    /  \     |  _  \  |  |  /  |          
                  \  \/   | |  | |   /    \    | | | |  |  | /  /          
                 / \  \   | |__| |  /  /\  \   | |_| |  |  |/  /          
                |  |  |   |  __  | /  /__\  \  |    /   |      \           
                |  |  |   | |  | | |   __   |  |    \   |  |\   \          
                \     /   | |  | | |  |  |  |  | |\  \  |  | \   \       
                 \___/    |_|  |_| |__|  |__|  |_| \__\ |__|  \__/        
                                                                              
                      - O R C A' S   B I G   F R I E N D -                    
                                      &                                       
                       - I N T E G R A L  F E E D E R -                       
                                                                              
 v1 FN, 2020, v2 2021, v3 2022-2024                                           
------------------------------------------------------------------------------


----------------------
SHARK INTEGRAL PACKAGE
----------------------

Number of atoms                             ...     75
Number of basis functions                   ...   1889
Number of shells                            ...    703
Maximum angular momentum                    ...      3
Integral batch strategy                     ... SHARK/LIBINT Hybrid
RI-J (if used) integral strategy            ... SPLIT-RIJ (Revised 2003 algorithm where possible)
Printlevel                                  ...      1
Contraction scheme used                     ... SEGMENTED contraction
Prescreening option                         ... SCHWARTZ
   Thresh                                   ... 2.500e-11
   Tcut                                     ... 2.500e-12
   Tpresel                                  ... 2.500e-12 
Coulomb Range Separation                    ... NOT USED
Exchange Range Separation                   ... NOT USED
Multipole approximations                    ... NOT USED
Finite Nucleus Model                        ... NOT USED
CABS basis                                  ... NOT available
Auxiliary Coulomb fitting basis             ... AVAILABLE
   # of basis functions in Aux-J            ...   3031
   # of shells in Aux-J                     ...    953
   Maximum angular momentum in Aux-J        ...      4
Auxiliary J/K fitting basis                 ... NOT available
Auxiliary Correlation fitting basis         ... NOT available
Auxiliary 'external' fitting basis          ... NOT available

Checking pre-screening integrals            ... done (  0.0 sec) Dimension = 703
Check shell pair data                       ... done (  0.0 sec)
Shell pair information
Shell pair cut-off parameter TPreSel        ...   2.5e-12
Total number of shell pairs                 ...    247456
Shell pairs after pre-screening             ...    103475
Total number of primitive shell pairs       ...    800825
Primitive shell pairs kept                  ...    199972
          la=0 lb=0:  23123 shell pairs
          la=1 lb=0:  30017 shell pairs
          la=1 lb=1:   9831 shell pairs
          la=2 lb=0:  14777 shell pairs
          la=2 lb=1:   9992 shell pairs
          la=2 lb=2:   2386 shell pairs
          la=3 lb=0:   6469 shell pairs
          la=3 lb=1:   4460 shell pairs
          la=3 lb=2:   1974 shell pairs
          la=3 lb=3:    446 shell pairs

Calculating one electron integrals          ... done (  0.1 sec)
done (  0.5 sec)
Calculating Nuclear repulsion               ... done (  0.0 sec) ENN=   9267.382542205112 Eh

Diagonalization of the overlap matrix:
Smallest eigenvalue                        ... 1.899e-05
Time for diagonalization                   ...    0.353 sec
Threshold for overlap eigenvalues          ... 1.000e-07
Number of eigenvalues below threshold      ... 0
Time for construction of square roots      ...    0.371 sec
Total time needed                          ...    0.771 sec

-------------------
DFT GRID GENERATION
-------------------

General Integration Accuracy     IntAcc      ... 4.959
Radial Grid Type                 RadialGrid  ... OptM3 with GC (2021)
Angular Grid (max. ang.)         AngularGrid ... 6 (Lebedev-590)
Angular grid pruning method      GridPruning ... 4 (adaptive)
Weight generation scheme         WeightScheme... mBecke (2022)
Basis function cutoff            BFCut       ... 1.0000e-11
Integration weight cutoff        WCut        ... 1.0000e-14
Partially contracted basis set               ... off
Rotationally invariant grid construction     ... off
Angular grids for H and He will be reduced by one unit
Core-polarized basis detected: some atoms will have their core
                               angular grid increased.

Total number of grid points                  ...   973263
Total number of batches                      ...    15245
Average number of points per batch           ...       63
Average number of grid points per atom       ...    12977

--------------------
COSX GRID GENERATION
--------------------

GRIDX 1
-------
General Integration Accuracy     IntAcc      ... 4.020
Radial Grid Type                 RadialGrid  ... OptM3 with GC (2021)
Angular Grid (max. ang.)         AngularGrid ... 2 (Lebedev-110)
[...]
  (3) Hindered rotations indicated by low frequency modes are not
      treated as such but are treated as vibrations and this may
      cause some error
  (4) All equations used are the standard statistical mechanics
      equations for an ideal gas
  (5) All vibrations are strictly harmonic

freq.       9.80  E(vib)   ...       0.58 
freq.      11.67  E(vib)   ...       0.58 
freq.      15.31  E(vib)   ...       0.57 
freq.      17.44  E(vib)   ...       0.57 
freq.      18.50  E(vib)   ...       0.57 
freq.      18.65  E(vib)   ...       0.57 
freq.      19.13  E(vib)   ...       0.57 
freq.      19.61  E(vib)   ...       0.56 
freq.      20.11  E(vib)   ...       0.56 
freq.      23.34  E(vib)   ...       0.56 
freq.      25.53  E(vib)   ...       0.56 
freq.      26.22  E(vib)   ...       0.56 
freq.      40.89  E(vib)   ...       0.54 
freq.      41.81  E(vib)   ...       0.53 
freq.      45.57  E(vib)   ...       0.53 
freq.      47.01  E(vib)   ...       0.53 
freq.      63.88  E(vib)   ...       0.51 
freq.      65.11  E(vib)   ...       0.50 
freq.      80.04  E(vib)   ...       0.49 
freq.      83.78  E(vib)   ...       0.48 
freq.      86.83  E(vib)   ...       0.48 
freq.      89.29  E(vib)   ...       0.47 
freq.      92.01  E(vib)   ...       0.47 
freq.      97.37  E(vib)   ...       0.46 
freq.     107.89  E(vib)   ...       0.45 
freq.     111.78  E(vib)   ...       0.45 
freq.     123.06  E(vib)   ...       0.43 
freq.     124.14  E(vib)   ...       0.43 
freq.     130.61  E(vib)   ...       0.43 
freq.     138.31  E(vib)   ...       0.42 
freq.     153.34  E(vib)   ...       0.40 
freq.     157.81  E(vib)   ...       0.40 
freq.     163.62  E(vib)   ...       0.39 
freq.     175.79  E(vib)   ...       0.38 
freq.     184.00  E(vib)   ...       0.37 
freq.     192.57  E(vib)   ...       0.36 
freq.     192.71  E(vib)   ...       0.36 
freq.     210.63  E(vib)   ...       0.34 
freq.     236.82  E(vib)   ...       0.32 
freq.     253.29  E(vib)   ...       0.30 
freq.     254.46  E(vib)   ...       0.30 
freq.     255.70  E(vib)   ...       0.30 
freq.     257.78  E(vib)   ...       0.30 
freq.     258.24  E(vib)   ...       0.30 
freq.     267.17  E(vib)   ...       0.29 
freq.     279.40  E(vib)   ...       0.28 
freq.     297.37  E(vib)   ...       0.27 
freq.     309.59  E(vib)   ...       0.26 
freq.     318.35  E(vib)   ...       0.25 
freq.     324.93  E(vib)   ...       0.24 
freq.     329.27  E(vib)   ...       0.24 
freq.     338.73  E(vib)   ...       0.23 
freq.     342.78  E(vib)   ...       0.23 
freq.     347.17  E(vib)   ...       0.23 
freq.     355.16  E(vib)   ...       0.22 
freq.     359.10  E(vib)   ...       0.22 
freq.     379.38  E(vib)   ...       0.21 
freq.     382.78  E(vib)   ...       0.20 
freq.     388.19  E(vib)   ...       0.20 
freq.     389.59  E(vib)   ...       0.20 
freq.     397.72  E(vib)   ...       0.20 
freq.     411.79  E(vib)   ...       0.19 
freq.     414.98  E(vib)   ...       0.19 
freq.     415.04  E(vib)   ...       0.19 
freq.     420.88  E(vib)   ...       0.18 
freq.     448.88  E(vib)   ...       0.17 
freq.     453.21  E(vib)   ...       0.16 
freq.     501.49  E(vib)   ...       0.14 
freq.     505.34  E(vib)   ...       0.14 
freq.     505.42  E(vib)   ...       0.14 
freq.     510.92  E(vib)   ...       0.14 
freq.     518.92  E(vib)   ...       0.13 
freq.     519.70  E(vib)   ...       0.13 
freq.     522.00  E(vib)   ...       0.13 
freq.     524.69  E(vib)   ...       0.13 
freq.     528.62  E(vib)   ...       0.13 
freq.     533.28  E(vib)   ...       0.13 
freq.     534.34  E(vib)   ...       0.13 
freq.     542.53  E(vib)   ...       0.12 
freq.     550.11  E(vib)   ...       0.12 
freq.     556.13  E(vib)   ...       0.12 
freq.     594.31  E(vib)   ...       0.10 
freq.     597.92  E(vib)   ...       0.10 
freq.     599.82  E(vib)   ...       0.10 
freq.     600.53  E(vib)   ...       0.10 
freq.     605.92  E(vib)   ...       0.10 
freq.     613.73  E(vib)   ...       0.10 
freq.     675.32  E(vib)   ...       0.08 
freq.     676.01  E(vib)   ...       0.08 
freq.     679.68  E(vib)   ...       0.08 
freq.     680.01  E(vib)   ...       0.08 
freq.     682.09  E(vib)   ...       0.08 
freq.     682.11  E(vib)   ...       0.08 
freq.     684.69  E(vib)   ...       0.07 
freq.     693.55  E(vib)   ...       0.07 
freq.     737.31  E(vib)   ...       0.06 
freq.     738.96  E(vib)   ...       0.06 
freq.     739.99  E(vib)   ...       0.06 
freq.     741.35  E(vib)   ...       0.06 
freq.     757.20  E(vib)   ...       0.06 
freq.     758.44  E(vib)   ...       0.06 
freq.     760.93  E(vib)   ...       0.06 
freq.     768.38  E(vib)   ...       0.06 
freq.     768.53  E(vib)   ...       0.06 
freq.     769.21  E(vib)   ...       0.06 
freq.     779.24  E(vib)   ...       0.05 
freq.     783.61  E(vib)   ...       0.05 
freq.     830.27  E(vib)   ...       0.04 
freq.     833.06  E(vib)   ...       0.04 
freq.     834.66  E(vib)   ...       0.04 
freq.     835.99  E(vib)   ...       0.04 
freq.     841.34  E(vib)   ...       0.04 
freq.     841.41  E(vib)   ...       0.04 
freq.     848.97  E(vib)   ...       0.04 
freq.     852.43  E(vib)   ...       0.04 
freq.     869.77  E(vib)   ...       0.04 
freq.     869.79  E(vib)   ...       0.04 
freq.     890.59  E(vib)   ...       0.04 
freq.     890.88  E(vib)   ...       0.04 
freq.     972.44  E(vib)   ...       0.03 
freq.     973.98  E(vib)   ...       0.03 
freq.     981.86  E(vib)   ...       0.02 
freq.     981.94  E(vib)   ...       0.02 
freq.     990.20  E(vib)   ...       0.02 
freq.     990.77  E(vib)   ...       0.02 
freq.     994.46  E(vib)   ...       0.02 
freq.     995.59  E(vib)   ...       0.02 
freq.    1011.54  E(vib)   ...       0.02 
freq.    1011.66  E(vib)   ...       0.02 
freq.    1016.91  E(vib)   ...       0.02 
freq.    1016.93  E(vib)   ...       0.02 
freq.    1019.09  E(vib)   ...       0.02 
freq.    1019.13  E(vib)   ...       0.02 
freq.    1044.36  E(vib)   ...       0.02 
freq.    1046.41  E(vib)   ...       0.02 
freq.    1098.53  E(vib)   ...       0.02 
freq.    1100.61  E(vib)   ...       0.02 
freq.    1103.25  E(vib)   ...       0.02 
freq.    1103.42  E(vib)   ...       0.02 
freq.    1125.98  E(vib)   ...       0.01 
freq.    1126.03  E(vib)   ...       0.01 
freq.    1135.63  E(vib)   ...       0.01 
freq.    1141.69  E(vib)   ...       0.01 
freq.    1144.87  E(vib)   ...       0.01 
freq.    1146.47  E(vib)   ...       0.01 
freq.    1165.65  E(vib)   ...       0.01 
freq.    1167.66  E(vib)   ...       0.01 
freq.    1169.52  E(vib)   ...       0.01 
freq.    1169.59  E(vib)   ...       0.01 
freq.    1183.36  E(vib)   ...       0.01 
freq.    1188.15  E(vib)   ...       0.01 
freq.    1189.37  E(vib)   ...       0.01 
freq.    1190.35  E(vib)   ...       0.01 
freq.    1221.12  E(vib)   ...       0.01 
freq.    1224.69  E(vib)   ...       0.01 
freq.    1236.51  E(vib)   ...       0.01 
freq.    1239.41  E(vib)   ...       0.01 
freq.    1251.80  E(vib)   ...       0.01 
freq.    1252.67  E(vib)   ...       0.01 
freq.    1254.83  E(vib)   ...       0.01 
freq.    1255.24  E(vib)   ...       0.01 
freq.    1280.22  E(vib)   ...       0.01 
freq.    1281.90  E(vib)   ...       0.01 
freq.    1299.09  E(vib)   ...       0.01 
freq.    1299.14  E(vib)   ...       0.01 
freq.    1303.28  E(vib)   ...       0.01 
freq.    1304.44  E(vib)   ...       0.01 
freq.    1341.13  E(vib)   ...       0.01 
freq.    1341.72  E(vib)   ...       0.01 
freq.    1351.08  E(vib)   ...       0.01 
freq.    1351.40  E(vib)   ...       0.01 
freq.    1359.59  E(vib)   ...       0.01 
freq.    1372.31  E(vib)   ...       0.01 
freq.    1381.25  E(vib)   ...       0.01 
freq.    1381.41  E(vib)   ...       0.01 
freq.    1386.68  E(vib)   ...       0.00 
freq.    1387.13  E(vib)   ...       0.00 
freq.    1457.36  E(vib)   ...       0.00 
freq.    1457.38  E(vib)   ...       0.00 
freq.    1477.45  E(vib)   ...       0.00 
freq.    1478.90  E(vib)   ...       0.00 
freq.    1538.41  E(vib)   ...       0.00 
freq.    1538.60  E(vib)   ...       0.00 
freq.    1545.01  E(vib)   ...       0.00 
freq.    1545.92  E(vib)   ...       0.00 
freq.    1547.56  E(vib)   ...       0.00 
freq.    1551.76  E(vib)   ...       0.00 
freq.    1573.59  E(vib)   ...       0.00 
freq.    1579.83  E(vib)   ...       0.00 
freq.    1600.25  E(vib)   ...       0.00 
freq.    1603.58  E(vib)   ...       0.00 
freq.    1614.09  E(vib)   ...       0.00 
freq.    1619.13  E(vib)   ...       0.00 
freq.    1619.34  E(vib)   ...       0.00 
freq.    1619.59  E(vib)   ...       0.00 
freq.    1652.50  E(vib)   ...       0.00 
freq.    1652.89  E(vib)   ...       0.00 
freq.    1676.79  E(vib)   ...       0.00 
freq.    1677.01  E(vib)   ...       0.00 
freq.    2222.50  E(vib)   ...       0.00 
freq.    2223.65  E(vib)   ...       0.00 
freq.    3169.87  E(vib)   ...       0.00 
freq.    3169.89  E(vib)   ...       0.00 
freq.    3172.49  E(vib)   ...       0.00 
freq.    3172.52  E(vib)   ...       0.00 
freq.    3202.32  E(vib)   ...       0.00 
freq.    3202.34  E(vib)   ...       0.00 
freq.    3207.90  E(vib)   ...       0.00 
freq.    3207.95  E(vib)   ...       0.00 
freq.    3217.49  E(vib)   ...       0.00 
freq.    3217.56  E(vib)   ...       0.00 
freq.    3220.32  E(vib)   ...       0.00 
freq.    3220.32  E(vib)   ...       0.00 
freq.    3226.38  E(vib)   ...       0.00 
freq.    3226.61  E(vib)   ...       0.00 
freq.    3236.00  E(vib)   ...       0.00 
freq.    3236.11  E(vib)   ...       0.00 
freq.    3274.99  E(vib)   ...       0.00 
freq.    3276.25  E(vib)   ...       0.00 

------------
INNER ENERGY
------------

The inner energy is: U= E(el) + E(ZPE) + E(vib) + E(rot) + E(trans)
    E(el)   - is the total energy from the electronic structure calculation
              = E(kin-el) + E(nuc-el) + E(el-el) + E(nuc-nuc)
    E(ZPE)  - the the zero temperature vibrational energy from the frequency calculation
    E(vib)  - the the finite temperature correction to E(ZPE) due to population
              of excited vibrational states
    E(rot)  - is the rotational thermal energy
    E(trans)- is the translational thermal energy

Summary of contributions to the inner energy U:
Electronic energy                ...  -4315.99641976 Eh
Zero point energy                ...      0.48725506 Eh     305.76 kcal/mol
Thermal vibrational correction   ...      0.04820992 Eh      30.25 kcal/mol
Thermal rotational correction    ...      0.00141627 Eh       0.89 kcal/mol
Thermal translational correction ...      0.00141627 Eh       0.89 kcal/mol
-----------------------------------------------------------------------
Total thermal energy                  -4315.45812224 Eh


Summary of corrections to the electronic energy:
(perhaps to be used in another calculation)
Total thermal correction                  0.05104246 Eh      32.03 kcal/mol
Non-thermal (ZPE) correction              0.48725506 Eh     305.76 kcal/mol
-----------------------------------------------------------------------
Total correction                          0.53829752 Eh     337.79 kcal/mol


--------
ENTHALPY
--------

The enthalpy is H = U + kB*T
                kB is Boltzmann's constant
Total thermal energy              ...  -4315.45812224 Eh 
Thermal Enthalpy correction       ...      0.00094421 Eh       0.59 kcal/mol
-----------------------------------------------------------------------
Total Enthalpy                    ...  -4315.45717803 Eh


Note: Only C1 symmetry has been detected, increase convergence thresholds 
      if your molecule has a higher symmetry. Symmetry factor of 1.0 is   
      used for the rotational entropy correction. 
 

Note: Rotational entropy computed according to Herzberg 
Infrared and Raman Spectra, Chapter V,1, Van Nostrand Reinhold, 1945 
Point Group:  C1, Symmetry Number:   1  
Rotational constants in cm-1:     0.002144     0.000843     0.000790 

Vibrational entropy computed according to the QRRHO of S. Grimme
Chem.Eur.J. 2012 18 9955 using a reference frequency of 100.0 cm-1


-------
ENTROPY
-------

The entropy contributions are T*S = T*(S(el)+S(vib)+S(rot)+S(trans))
     S(el)   - electronic entropy
     S(vib)  - vibrational entropy
     S(rot)  - rotational entropy
     S(trans)- translational entropy
The entropies will be listed as multiplied by the temperature to get
units of energy

Electronic entropy                ...      0.00065446 Eh      0.41 kcal/mol
Vibrational entropy               ...      0.09053421 Eh     56.81 kcal/mol
Rotational entropy                ...      0.01912573 Eh     12.00 kcal/mol
Translational entropy             ...      0.02192113 Eh     13.76 kcal/mol
-----------------------------------------------------------------------
Final entropy term                ...      0.13223553 Eh     82.98 kcal/mol

In case the symmetry of your molecule has not been determined correctly
or in case you have a reason to use a different symmetry number we print 
out the resulting rotational entropy values for sn=1,12:

 non-linear molecules -----------------------------------
|  sn= 1 | S(rot)=       0.01912573 Eh     12.00 kcal/mol|
|  sn= 2 | S(rot)=       0.01847128 Eh     11.59 kcal/mol|
|  sn= 3 | S(rot)=       0.01808844 Eh     11.35 kcal/mol|
|  sn= 4 | S(rot)=       0.01781682 Eh     11.18 kcal/mol|
|  sn= 5 | S(rot)=       0.01760613 Eh     11.05 kcal/mol|
|  sn= 6 | S(rot)=       0.01743399 Eh     10.94 kcal/mol|
|  sn= 7 | S(rot)=       0.01728844 Eh     10.85 kcal/mol|
|  sn= 8 | S(rot)=       0.01716236 Eh     10.77 kcal/mol|
|  sn= 9 | S(rot)=       0.01705115 Eh     10.70 kcal/mol|
|  sn=10 | S(rot)=       0.01695167 Eh     10.64 kcal/mol|
|  sn=11 | S(rot)=       0.01686168 Eh     10.58 kcal/mol|
|  sn=12 | S(rot)=       0.01677953 Eh     10.53 kcal/mol|
 linear molecules ---------------------------------------
|  Dinfh | S(rot)=       0.01207072 Eh      7.57 kcal/mol|
|  Cinfv | S(rot)=       0.01272518 Eh      7.99 kcal/mol|
 --------------------------------------------------------


-------------------
GIBBS FREE ENERGY
-------------------

The Gibbs free energy is G = H - T*S

Total enthalpy                    ...  -4315.45717803 Eh 
Total entropy correction          ...     -0.13223553 Eh    -82.98 kcal/mol
-----------------------------------------------------------------------
Final Gibbs free energy         ...  -4315.58941356 Eh

For completeness - the Gibbs free energy minus the electronic energy
G-E(el)                           ...      0.40700620 Eh    255.40 kcal/mol


Maximum memory used throughout the entire PROP-calculation: 3792.9 MB

--------------------------------
SUGGESTED CITATIONS FOR THIS RUN
--------------------------------

Below you find a list of papers that are relevant to this ORCA run
We neither can nor want to force you to cite these papers, but we appreciate if you do
You receive ORCA, which is the product of decades of hard work by many enthusiastic individuals, for free
The only thing we kindly ask in return is that you cite our papers,
We deeply appreciate it, if you show your appreciation for ORCA by not just citing the generic ORCA reference.

Please note that relegating all ORCA citations to the supporting information does *not* help us.
SI sections are not indexed - citations you put there will not count into any citation statistics
But we need these citations in order to attract the funding resources that allow us to do what we are doing

Therefore, if you are a happy ORCA user, please consider citing a few of the papers listed below in the main body of your paper

In addition to the list printed below, the program has created the file SUTWOT-S6.bibtex that contains the list in bibtex format
You can import this file easily into all common literature databanks and citation aid programs


List of essential papers. We consider these as the minimum necessary citations

  1. Neese,F.
     Software update: the ORCA program system, version 5.0
     WIRES Comput. Molec. Sci., 2022 12(1)e1606
     doi.org/10.1002/wcms.1606

List of papers to cite with high priority. The work reported in these papers was absolutely
necessary for this run to complete.
Our perspective: the developers of density functionals and basis sets usually get cited in chemistry papers
Good! But without the algorithms to do something with them, the functionals or basis sets would not do anything.
Hence, in our opinion, the algorithm design and method developments papers are equally worthy of getting cited

  1. Neese,F.
     An improvement of the resolution of the identity approximation for the formation of the Coulomb matrix
     J. Comp. Chem., 2003 24(14)1740-1747
     doi.org/10.1002/jcc.10318
  2. Neese,F.; Wennmohs,F.; Hansen,A.; Becker,U.
     Efficient, approximate and parallel Hartree-Fock and hybrid DFT calculations. A 'chain-of-spheres' algorithm for the Hartree-Fock exchange
     Chem. Phys., 2009 356(1-3)98-109
     doi.org/10.1016/j.chemphys.2008.10.036
  3. Bykov,D.; Petrenko,T.; Izsak,R.; Kossmann,S.; Becker,U.; Valeev,E.; Neese,F.
     Efficient implementation of the analytic second derivatives of Hartree-Fock and hybrid DFT energies: a detailed analysis of different approximations
     Molec. Phys., 2015 113 1961-1977
     doi.org/10.1080/00268976.2015.1025114
  4. Helmich-Paris,B.; de Souza,B.; Neese,F.; Izsák,R.
     An improved chain of spheres for exchange algorithm
     J. Chem. Phys., 2021 155 104109
     doi.org/doi: 10.1063/5.0058766.
  5. Neese,F.
     The SHARK Integral Generation and Digestion System
     J. Comp. Chem., 2022  1-16
     doi.org/10.1002/jcc.26942

List of suggested additional citations. These are papers that are important in the 'surrounding' of 
of this run, or papers that preceded the highly important papers. If you like your results we are grateful for a citation.

  1. Izsak,R.; Neese,F.
     An overlap fitted chain of spheres exchange method
     J. Chem. Phys., 2011 135 144105
     doi.org/10.1063/1.3646921
  2. Izsak,R.; Hansen,A.; Neese,F.
     The resolution of identity and chain of spheres approximations for the LPNO-CCSD singles Fock term
     Molec. Phys., 2012 110 2413-2417
     doi.org/10.1080/00268976.2012.687466
  3. Neese,F.
     The ORCA program system
     WIRES Comput. Molec. Sci., 2012 2(1)73-78
     doi.org/10.1002/wcms.81
  4. Izsak,R.; Neese,F.; Klopper,W.
     Robust fitting techniques in the chain of spheres approximation to the Fock exchange: The role of the complementary space
     J. Chem. Phys., 2013 139 
     doi.org/10.1063/1.4819264
  5. Neese,F.
     Software update: the ORCA program system, version 4.0
     WIRES Comput. Molec. Sci., 2018 8(1)1-6
     doi.org/10.1002/wcms.1327
  6. Neese,F.; Wennmohs,F.; Becker,U.; Riplinger,C.
     The ORCA quantum chemistry program package
     J. Chem. Phys., 2020 152 Art. No. L224108
     doi.org/10.1063/5.0004608

List of optional additional citations

  1. Neese,F.
     Approximate second-order SCF convergence for spin unrestricted wavefunctions
     Chem. Phys. Lett., 2000 325(1-3)93-98
     doi.org/10.1016/s0009-2614(00)00662-x

Timings for individual modules:

Sum of individual times          ...    57359.934 sec (= 955.999 min)
Startup calculation              ...      163.272 sec (=   2.721 min)   0.3 %
SCF iterations                   ...     4354.418 sec (=  72.574 min)   7.6 %
Property integrals               ...    12420.743 sec (= 207.012 min)  21.7 %
SCF Response                     ...    38367.464 sec (= 639.458 min)  66.9 %
Property calculations            ...     1577.910 sec (=  26.298 min)   2.8 %
SCF Gradient evaluation          ...      475.605 sec (=   7.927 min)   0.8 %
Geometry relaxation              ...        0.522 sec (=   0.009 min)   0.0 %
                             ****ORCA TERMINATED NORMALLY****
TOTAL RUN TIME: 0 days 15 hours 56 minutes 23 seconds 549 msec
