
                                 *****************
                                 * O   R   C   A *
                                 *****************

                                            #,                                       
                                            ###                                      
                                            ####                                     
                                            #####                                    
                                            ######                                   
                                           ########,                                 
                                     ,,################,,,,,                         
                               ,,#################################,,                 
                          ,,##########################################,,             
                       ,#########################################, ''#####,          
                    ,#############################################,,   '####,        
                  ,##################################################,,,,####,       
                ,###########''''           ''''###############################       
              ,#####''   ,,,,##########,,,,          '''####'''          '####       
            ,##' ,,,,###########################,,,                        '##       
           ' ,,###''''                  '''############,,,                           
         ,,##''                                '''############,,,,        ,,,,,,###''
      ,#''                                            '''#######################'''  
     '                                                          ''''####''''         
             ,#######,   #######,   ,#######,      ##                                
            ,#'     '#,  ##    ##  ,#'     '#,    #''#        ,####,   ,####,        
            ##       ##  ##   ,#'  ##            #'  '#       #'       #'  '#        
            ##       ##  #######   ##           ,######,      #####,   #    #        
            '#,     ,#'  ##    ##  '#,     ,#' ,#      #,     #,   #   #,  ,#        
             '#######'   ##     ##  '#######'  #'      '#     '####' # '####'        



                #########################################################
                #                        -***-                          #
                #          Department of theory and spectroscopy        #
                #                                                       #
                #                      Frank Neese                      #
                #                                                       #
                #     Directorship, Architecture, Infrastructure        #
                #                    SHARK, DRIVERS                     #
                #        Core code/Algorithms in most modules           #
                #                                                       #
                #        Max Planck Institute fuer Kohlenforschung      #
                #                Kaiser Wilhelm Platz 1                 #
                #                 D-45470 Muelheim/Ruhr                 #
                #                      Germany                          #
                #                                                       #
                #                  All rights reserved                  #
                #                        -***-                          #
                #########################################################


                         Program Version 6.0.1  -  RELEASE   -


 With contributions from (in alphabetic order):
[Max-Planck-Institut fuer Kohlenforschung]                               
  Daniel Aravena         : Magnetic Suceptibility                        
  Michael Atanasov       : Ab Initio Ligand Field Theory (pilot matlab implementation)
  Alexander A. Auer      : GIAO ZORA, VPT2 properties, NMR spectrum      
  Ute Becker             : All parallelization in ORCA, NUMFREQ, NUMCALC 
  Giovanni Bistoni       : ED, misc. LED, open-shell LED, HFLD           
  Martin Brehm           : Molecular dynamics                            
  Dmytro Bykov           : pre 5.0 version of the SCF Hessian            
  Marcos Casanova-Páez   : Triplet and SCS-CIS(D). UHF-(DLPNO)-IP/EA/STEOM-CCSD. UHF-CVS-IP/STEOM-CCSD   
  Vijay G. Chilkuri      : MRCI spin determinant printing, contributions to CSF-ICE 
  Pauline Colinet        : FMM embedding                                 
  Dipayan Datta          : RHF DLPNO-CCSD density                        
  Achintya Kumar Dutta   : EOM-CC, STEOM-CC                              
  Nicolas Foglia         : Exact transition moments, OPA infrastructure, MCD improvements    
  Dmitry Ganyushin       : Spin-Orbit,Spin-Spin,Magnetic field MRCI      
  Miquel Garcia-Rates    : C-PCM and meta-GGA Hessian, CCSD/C-PCM, Gaussian charge scheme 
  Tiago L. C. Gouveia    : GS-ROHF, GS-ROCIS                             
  Yang Guo               : DLPNO-NEVPT2, F12-NEVPT2, CIM, IAO-localization        
  Andreas Hansen         : Spin unrestricted coupled pair/coupled cluster methods 
  Ingolf Harden          : AUTO-CI MPn and infrastructure                
  Benjamin Helmich-Paris : MC-RPA, TRAH-(SCF,CASSCF), AVAS, COSX integrals, SCF dyn. polar. 
  Lee Huntington         : MR-EOM, pCC                                   
  Robert Izsak           : Overlap fitted RIJCOSX, COSX-SCS-MP3, EOM     
  Riya Kayal             : Wick's Theorem for AUTO-CI, AUTO-CI UHF-CCSDT 
  Emily Kempfer          : AUTO-CI, RHF CISDT and CCSDT                  
  Christian Kollmar      : KDIIS, OOCD, Brueckner-CCSD(T), CCSD density, CASPT2, CASPT2-K, improved NEVPT2 
  Axel Koslowski         : Symmetry handling                             
  Simone Kossmann        : meta-GGA functionals, TD-DFT gradient, OOMP2, (MP2 Hessian; deprecated post 5.0) 
  Lucas Lang             : DCDCAS                                        
  Marvin Lechner         : AUTO-CI (C++ implementation), FIC-MRCC        
  Spencer Leger          : CASSCF response                               
  Dagmar Lenk            : GEPOL surface, SMD, ORCA-2-JSON               
  Dimitrios Liakos       : Extrapolation schemes; Compound Job, initial MDCI parallelization 
  Dimitrios Manganas     : Further ROCIS development; embedding schemes. LFT, Crystal Embedding 
  Dimitrios Pantazis     : SARC Basis sets                               
  Anastasios Papadopoulos: AUTO-CI, single reference methods and gradients 
  Taras Petrenko         : pre 6.0 DFT Hessian and TD-DFT gradient, (ASA, deprecated), ECA, 1-Electron XAS/XES, NRVS 
  Peter Pinski           : DLPNO-MP2, DLPNO-MP2 Gradient                 
  Christoph Reimann      : Effective Core Potentials                     
  Marius Retegan         : Local ZFS, SOC                                
  Christoph Riplinger    : Optimizer, TS searches, QM/MM, DLPNO-CCSD(T), (RO)-DLPNO pert. Triples 
  Michael Roemelt        : Original ROCIS implementation                 
  Masaaki Saitow         : Open-shell DLPNO-CCSD energy and density      
  Barbara Sandhoefer     : DKH picture change effects                    
  Kantharuban Sivalingam : CASSCF convergence/infrastructure, NEVPT2 and variants, FIC-MRCI 
  Bernardo de Souza      : ESD, SOC TD-DFT                               
  Georgi L. Stoychev     : AutoAux, RI-MP2 NMR, DLPNO-MP2 response, X2C  
  Van Anh Tran           : RI-MP2 g-tensors                              
  Willem Van den Heuvel  : Paramagnetic NMR                              
  Zikuan Wang            : NOTCH, Electric field optimization            
  Frank Wennmohs         : Technical directorship and infrastructure     
  Hang Xu                : AUTO-CI-Response properties                   
                                                                         
[FACCTs GmbH]                                                            
  Markus Bursch, Miquel Garcia-Rates, Christoph Riplinger, Bernardo de Souza, Georgi L. Stoychev 
                                                                 
  APM, Basis sets (HGBS, AHGBS, def-TZVP (Ac-Lr), def2-XVPD (La-Lu)), CI-OPT, improved COSX, DLPNO-Multilevel,           
  DOCKER, DRACO, updates on ESD, GOAT, IRC, LR-CPCM, MBIS, meta-GGA TD-DFT gradient, ML-optimized integration grids, 
  MM, NACMEs, nearIR, NEB, NEB-TS, NL-DFT gradient (VV10), 2- and 3-layer-ONIOM, interface openCOSMO-RS, QMMM,   
  Crystal-QMMM, SF, symmetry and pop. for TD-DFT, r2SCAN hybrids, SOLVATOR                                   
                                                                         
[Other institutions]                                                     
  V. Asgeirsson          : NEB                                           
  Christoph Bannwarth    : sTDA-DFT, sTD-DFT, PBEh-3c, B97-3c, D3        
  Sebastian Ehlert       : rSCAN, r2SCAN, r2SCAN-3c, D4, dhf basis sets  
  Marvin Friede          : D4 for Fr, Ra, Ac-Lr                          
  Lars Goerigk           : TD-DFT with DH, B97 family of functionals     
  Stefan Grimme          : VdW corrections, initial TS optimization, DFT functionals, gCP, sTDA/sTD-DF 
  Waldemar Hujo          : DFT-NL                                        
  H. Jonsson             : NEB                                           
  Holger Kruse           : gCP                                           
  Marcel Mueller         : wB97X-3c, vDZP basis set                      
  Hagen Neugebauer       : wr2SCAN                                       
  Tobias Risthaus        : range-separated hybrid DFT                    
  Lukas Wittmann         : regularized MP2, r2SCAN double-hybrids, wr2SCAN        
                                                                         
We gratefully acknowledge several colleagues who have allowed us to      
interface, adapt or use parts of their codes:                            
  Ed Valeev, F. Pavosevic, A. Kumar             : LibInt (2-el integral package), F12 methods 
  Garnet Chan, S. Sharma, J. Yang, R. Olivares  : DMRG                   
  Ulf Ekstrom                                   : XCFun DFT Library      
  Mihaly Kallay                                 : mrcc  (arbitrary order and MRCC methods)
  Frank Weinhold                                : gennbo (NPA and NBO analysis)           
  Simon Mueller                                 : openCOSMO-RS                            
  Christopher J. Cramer and Donald G. Truhlar   : smd solvation model                     
  S Lehtola, MJT Oliveira, MAL Marques          : LibXC Library                           
  Liviu Ungur et al                             : ANISO software                          


 Your calculation uses the libint2 library for the computation of 2-el integrals
 For citations please refer to: http://libint.valeyev.net

 Your ORCA version has been built with support for libXC version: 6.2.2
 For citations please refer to: https://libxc.gitlab.io

 This ORCA versions uses:
   CBLAS   interface :  Fast vector & matrix operations
   LAPACKE interface :  Fast linear algebra routines
   SCALAPACK package :  Parallel linear algebra routines
   Shared memory     :  Shared parallel matrices
   BLAS/LAPACK       :  OpenBLAS 0.3.27  USE64BITINT DYNAMIC_ARCH NO_AFFINITY Cooperlake SINGLE_THREADED
        Core in use  :  Cooperlake
   Copyright (c) 2011-2014, The OpenBLAS Project


NOTE: MaxCore=3600 MB was set to SCF,MP2,MDCI,CIPSI,MRCI and CIS
      => If you want to overwrite this, your respective input block should be placed after the MaxCore statement
Warning: RI is on but no J-basis has been assigned. Assigning Def2/J (nothing to worry about!)
================================================================================

----- Orbital basis set information -----
Your calculation utilizes the basis: def2-TZVP
   F. Weigend and R. Ahlrichs, Phys. Chem. Chem. Phys. 7, 3297 (2005).

----- AuxJ basis set information -----
Your calculation utilizes the auxiliary basis: def2/J
   F. Weigend, Phys. Chem. Chem. Phys. 8, 1057 (2006).

================================================================================
                                        WARNINGS
                       Please study these warnings very carefully!
================================================================================


WARNING: your system is open-shell and RHF/RKS was chosen
  ===> : WILL SWITCH to UHF/UKS


WARNING: Geometry Optimization
  ===> : Switching off AutoStart
         For restart on a previous wavefunction, please use MOREAD

================================================================================
                                       INPUT FILE
================================================================================
NAME = XAKDOE01-S6.inp
|  1> ! PBE0 def2-TZVP  Opt Freq DEFGRID3
|  2> 
|  3> %maxcore 3600
|  4> 
|  5> %pal
|  6>     nprocs 16
|  7> end
|  8> 
|  9> *xyz 0 2
| 10> Mn 5.7382 1.7278 4.4773
| 11> S 7.9281 -1.5152 1.5289
| 12> O 6.37 3.3123 2.9296
| 13> H 7.183 3.2174 2.6846
| 14> N 6.7492 0.3393 3.2226
| 15> N 3.9536 2.2784 3.2783
| 16> C 7.2484 -0.4182 2.5148
| 17> C 4.1292 2.9881 2.1602
| 18> C 3.0711 3.3769 1.374
| 19> H 3.2191 3.8732 0.6017
| 20> C 1.7995 3.0301 1.7354
| 21> H 1.0742 3.282 1.2107
| 22> C 1.6078 2.3019 2.8852
| 23> H 0.7517 2.0601 3.1556
| 24> C 2.7038 1.9417 3.6255
| 25> H 2.5753 1.4428 4.4003
| 26> C 5.5476 3.319 1.7777
| 27> H 5.5603 4.2117 1.3987
| 28> H 5.8839 2.6958 1.1426
| 29> S 3.5482 -1.5152 7.4257
| 30> O 5.1063 3.3123 6.025
| 31> H 4.2933 3.2174 6.27
| 32> N 4.7271 0.3393 5.732
| 33> N 7.5227 2.2784 5.6763
| 34> C 4.2279 -0.4182 6.4398
| 35> C 7.3471 2.9881 6.7944
| 36> C 8.4052 3.3769 7.5806
| 37> H 8.2572 3.8732 8.3529
| 38> C 9.6768 3.0301 7.2192
| 39> H 10.4021 3.282 7.7439
| 40> C 9.8685 2.3019 6.0694
| 41> H 10.7246 2.0601 5.799
| 42> C 8.7725 1.9417 5.3291
| 43> H 8.901 1.4428 4.5543
| 44> C 5.9287 3.319 7.1769
| 45> H 5.916 4.2117 7.5559
| 46> H 5.5924 2.6958 7.812
| 47> *
| 48> 
| 49>                          ****END OF INPUT****
================================================================================

                       *****************************
                       * Geometry Optimization Run *
                       *****************************

Geometry optimization settings:
Update method            Update   .... BFGS
Choice of coordinates    CoordSys .... (2022) Redundant Internals
Initial Hessian          InHess   .... Almloef's Model
Max. no of cycles        MaxIter  .... 111

Convergence Tolerances:
Energy Change            TolE     ....  5.0000e-06 Eh
Max. Gradient            TolMAXG  ....  3.0000e-04 Eh/bohr
RMS Gradient             TolRMSG  ....  1.0000e-04 Eh/bohr
Max. Displacement        TolMAXD  ....  4.0000e-03 bohr
RMS Displacement         TolRMSD  ....  2.0000e-03 bohr
Strict Convergence                .... False

------------------------------------------------------------------------------
                        ORCA OPTIMIZATION COORDINATE SETUP
------------------------------------------------------------------------------

The optimization will be done in redundant internal coordinates (2022)
Making redundant internal coordinates   ...  (2022 redundants) done
Evaluating the initial hessian          ...  (Almloef) done
Evaluating the coordinates              ...  done
Calculating the B-matrix                .... done
Calculating the G-matrix                .... done
Diagonalizing the G-matrix              .... done
Small eigenvalue found = 1.687e-02
Small eigenvalue found = 2.131e-02
Small eigenvalue found = 2.230e-02
Small eigenvalue found = 2.793e-02
The first mode is                       ....  120
The number of degrees of freedom        ....  105

    -----------------------------------------------------------------
                    Redundant Internal Coordinates


    -----------------------------------------------------------------
         Definition                    Initial Value    Approx d2E/dq
    -----------------------------------------------------------------
      1. B(O   2,Mn  0)                  2.3033         0.197647   
      2. B(H   3,O   2)                  0.8544         0.766380   
      3. B(N   4,Mn  0)                  2.1270         0.377651   
      4. B(N   5,Mn  0)                  2.2194         0.269035   
      5. B(C   6,N   4)                  1.1506         1.348182   
      6. B(C   6,S   1)                  1.6240         0.713120   
      7. B(C   7,N   5)                  1.3359         0.682609   
      8. B(C   8,C   7)                  1.3744         0.661758   
      9. B(H   9,C   8)                  0.9299         0.648477   
     10. B(C  10,C   8)                  1.3667         0.680652   
     11. B(H  11,C  10)                  0.9300         0.648274   
     12. B(C  12,C  10)                  1.3744         0.661570   
     13. B(H  13,C  12)                  0.9298         0.648700   
     14. B(C  14,C  12)                  1.3708         0.670537   
     15. B(C  14,N   5)                  1.3401         0.672140   
     16. B(H  15,C  14)                  0.9304         0.647116   
     17. B(C  16,C   7)                  1.5059         0.408195   
     18. B(C  16,O   2)                  1.4154         0.509807   
     19. B(H  17,C  16)                  0.9699         0.559793   
     20. B(H  18,C  16)                  0.9512         0.599557   
     21. B(O  20,Mn  0)                  2.3033         0.197627   
     22. B(H  21,O  20)                  0.8544         0.766380   
     23. B(N  22,Mn  0)                  2.1271         0.377585   
     24. B(N  23,Mn  0)                  2.2193         0.269115   
     25. B(C  24,N  22)                  1.1506         1.348182   
     26. B(C  24,S  19)                  1.6240         0.713120   
     27. B(C  25,N  23)                  1.3359         0.682609   
     28. B(C  26,C  25)                  1.3744         0.661758   
     29. B(H  27,C  26)                  0.9299         0.648477   
     30. B(C  28,C  26)                  1.3667         0.680652   
     31. B(H  29,C  28)                  0.9300         0.648274   
     32. B(C  30,C  28)                  1.3744         0.661570   
     33. B(H  31,C  30)                  0.9298         0.648700   
     34. B(C  32,C  30)                  1.3708         0.670537   
     35. B(C  32,N  23)                  1.3401         0.672140   
     36. B(H  33,C  32)                  0.9304         0.647116   
     37. B(C  34,C  25)                  1.5059         0.408195   
     38. B(C  34,O  20)                  1.4154         0.509807   
     39. B(H  35,C  34)                  0.9699         0.559793   
     40. B(H  36,C  34)                  0.9512         0.599557   
     41. A(O   2,Mn  0,N  22)          167.3705         0.402912   
     42. A(N  22,Mn  0,N  23)          103.0314         0.425626   
     43. A(O   2,Mn  0,N   5)           71.7528         0.379730   
     44. A(N   5,Mn  0,N  23)          151.2705         0.400767   
     45. A(N   4,Mn  0,N   5)          103.0303         0.425617   
     46. A(O   2,Mn  0,O  20)           93.0683         0.360124   
     47. A(O   2,Mn  0,N   4)           85.5448         0.402924   
     48. A(N   5,Mn  0,N  22)           95.6465         0.425603   
     49. A(N   5,Mn  0,O  20)           88.3811         0.379723   
     50. A(O  20,Mn  0,N  23)           71.7537         0.379743   
     51. A(O  20,Mn  0,N  22)           85.5430         0.402904   
     52. A(N   4,Mn  0,N  23)           95.6503         0.425639   
     53. A(O   2,Mn  0,N  23)           88.3837         0.379749   
     54. A(N   4,Mn  0,O  20)          167.3752         0.402917   
     55. A(N   4,Mn  0,N  22)           98.4976         0.452457   
     56. A(H   3,O   2,C  16)          108.6659         0.382618   
     57. A(Mn  0,O   2,C  16)          113.0006         0.379213   
     58. A(Mn  0,O   2,H   3)          112.1655         0.363312   
     59. L(Mn  0,N   4,C   6,O   2, 2) 183.6612         0.507750   
     60. L(Mn  0,N   4,C   6,O   2, 1) 179.8344         0.507750   
     61. A(C   7,N   5,C  14)          118.2228         0.442280   
     62. A(Mn  0,N   5,C  14)          123.2034         0.420284   
     63. A(Mn  0,N   5,C   7)          118.5720         0.421445   
     64. L(S   1,C   6,N   4,Mn  0, 1) 179.0790         0.539704   
     65. L(S   1,C   6,N   4,Mn  0, 2) 152.7809         0.539704   
     66. A(N   5,C   7,C  16)          116.9452         0.407188   
     67. A(C   8,C   7,C  16)          121.1780         0.407584   
     68. A(N   5,C   7,C   8)          121.8617         0.443958   
     69. A(H   9,C   8,C  10)          120.2083         0.396929   
     70. A(C   7,C   8,C  10)          119.5555         0.446671   
     71. A(C   7,C   8,H   9)          120.2362         0.394974   
     72. A(C   8,C  10,H  11)          120.5126         0.396907   
     73. A(C   8,C  10,C  12)          119.0406         0.446648   
     74. A(H  11,C  10,C  12)          120.4467         0.394932   
     75. A(H  13,C  12,C  14)          120.7167         0.395911   
     76. A(C  10,C  12,C  14)          118.6528         0.445438   
     77. A(C  10,C  12,H  13)          120.6305         0.394978   
     78. A(C  12,C  14,H  15)          118.6981         0.395742   
     79. A(N   5,C  14,H  15)          118.6369         0.393382   
     80. A(N   5,C  14,C  12)          122.6649         0.443775   
     81. A(O   2,C  16,H  17)          108.3469         0.365693   
     82. A(O   2,C  16,C   7)          109.8486         0.386847   
     83. A(C   7,C  16,H  17)          108.2906         0.354299   
     84. A(H  17,C  16,H  18)          109.7233         0.339314   
     85. A(C   7,C  16,H  18)          111.0163         0.358452   
     86. A(O   2,C  16,H  18)          109.5636         0.370024   
     87. A(Mn  0,O  20,H  21)          112.1678         0.363306   
     88. A(H  21,O  20,C  34)          108.6659         0.382618   
     89. A(Mn  0,O  20,C  34)          112.9987         0.379206   
     90. L(Mn  0,N  22,C  24,O  20, 2) 183.6642         0.507733   
     91. L(Mn  0,N  22,C  24,O  20, 1) 179.8350         0.507733   
     92. A(C  25,N  23,C  32)          118.2228         0.442280   
     93. A(Mn  0,N  23,C  32)          123.2019         0.420306   
     94. A(Mn  0,N  23,C  25)          118.5736         0.421467   
     95. L(S  19,C  24,N  22,Mn  0, 2) 152.8011         0.539704   
     96. L(S  19,C  24,N  22,Mn  0, 1) 179.0789         0.539704   
     97. A(N  23,C  25,C  26)          121.8617         0.443958   
     98. A(C  26,C  25,C  34)          121.1780         0.407584   
     99. A(N  23,C  25,C  34)          116.9452         0.407188   
    100. A(H  27,C  26,C  28)          120.2083         0.396929   
    101. A(C  25,C  26,C  28)          119.5555         0.446671   
    102. A(C  25,C  26,H  27)          120.2362         0.394974   
    103. A(H  29,C  28,C  30)          120.4467         0.394932   
    104. A(C  26,C  28,C  30)          119.0406         0.446648   
    105. A(C  26,C  28,H  29)          120.5126         0.396907   
    106. A(C  28,C  30,C  32)          118.6528         0.445438   
    107. A(C  28,C  30,H  31)          120.6305         0.394978   
    108. A(H  31,C  30,C  32)          120.7167         0.395911   
    109. A(C  30,C  32,H  33)          118.6981         0.395742   
    110. A(N  23,C  32,H  33)          118.6369         0.393382   
    111. A(N  23,C  32,C  30)          122.6649         0.443775   
    112. A(H  35,C  34,H  36)          109.7233         0.339314   
    113. A(C  25,C  34,H  36)          111.0163         0.358452   
    114. A(O  20,C  34,H  36)          109.5636         0.370024   
    115. A(C  25,C  34,H  35)          108.2906         0.354299   
    116. A(O  20,C  34,H  35)          108.3469         0.365693   
    117. A(O  20,C  34,C  25)          109.8486         0.386847   
    118. D(H   3,O   2,Mn  0,N  23)     51.8371         0.001712   
    119. D(H   3,O   2,Mn  0,N   5)   -149.2556         0.001712   
    120. D(C  16,O   2,Mn  0,O  20)   -113.2800         0.001712   
    121. D(C  16,O   2,Mn  0,N  23)    175.0922         0.001712   
    122. D(C  16,O   2,Mn  0,N   5)    -26.0005         0.001712   
    123. D(C  16,O   2,Mn  0,N  22)    -29.9818         0.001712   
    124. D(C  16,O   2,Mn  0,N   4)     79.2959         0.001712   
    125. D(H   3,O   2,Mn  0,O  20)    123.4649         0.001712   
    126. D(H   3,O   2,Mn  0,N   4)    -43.9592         0.001712   
    127. D(H   3,O   2,Mn  0,N  22)   -153.2369         0.001712   
    128. D(C   7,N   5,Mn  0,N  22)   -168.3333         0.001886   
    129. D(C   7,N   5,Mn  0,O  20)    106.3079         0.001886   
    130. D(C  14,N   5,Mn  0,N  23)   -118.5237         0.001886   
    131. D(C   7,N   5,Mn  0,N  23)     60.9923         0.001886   
    132. D(C  14,N   5,Mn  0,N  22)     12.1507         0.001886   
    133. D(C  14,N   5,Mn  0,N   4)    112.2465         0.001886   
    134. D(C   7,N   5,Mn  0,N   4)    -68.2375         0.001886   
    135. D(C  14,N   5,Mn  0,O  20)    -73.2081         0.001886   
    136. D(C  14,N   5,Mn  0,O   2)   -166.9752         0.001886   
    137. D(C   7,N   5,Mn  0,O   2)     12.5408         0.001886   
    138. D(C  16,C   7,N   5,C  14)   -178.4060         0.038369   
    139. D(C   8,C   7,N   5,C  14)      0.1978         0.038369   
    140. D(C   8,C   7,N   5,Mn  0)   -179.3426         0.038369   
    141. D(C  16,C   7,N   5,Mn  0)      2.0536         0.038369   
    142. D(C  10,C   8,C   7,C  16)    178.3790         0.030570   
    143. D(H   9,C   8,C   7,C  16)     -1.6723         0.030570   
    144. D(C  10,C   8,C   7,N   5)     -0.1663         0.030570   
    145. D(H   9,C   8,C   7,N   5)    179.7824         0.030570   
    146. D(H  11,C  10,C   8,H   9)      0.3992         0.032480   
    147. D(H  11,C  10,C   8,C   7)   -179.6521         0.032480   
    148. D(C  12,C  10,C   8,C   7)      0.2697         0.032480   
    149. D(C  12,C  10,C   8,H   9)   -179.6790         0.032480   
    150. D(C  14,C  12,C  10,H  11)    179.5159         0.030551   
    151. D(C  14,C  12,C  10,C   8)     -0.4060         0.030551   
    152. D(H  13,C  12,C  10,H  11)     -0.5882         0.030551   
    153. D(H  13,C  12,C  10,C   8)    179.4899         0.030551   
    154. D(H  15,C  14,C  12,H  13)      0.5959         0.031449   
    155. D(N   5,C  14,C  12,H  13)   -179.4389         0.031449   
    156. D(N   5,C  14,C  12,C  10)      0.4569         0.031449   
    157. D(H  15,C  14,N   5,C   7)    179.6171         0.037092   
    158. D(H  15,C  14,N   5,Mn  0)     -0.8653         0.037092   
    159. D(H  15,C  14,C  12,C  10)   -179.5083         0.031449   
    160. D(C  12,C  14,N   5,C   7)     -0.3482         0.037092   
    161. D(C  12,C  14,N   5,Mn  0)    179.1694         0.037092   
    162. D(H  18,C  16,C   7,N   5)     96.5359         0.012345   
    163. D(H  17,C  16,C   7,N   5)   -142.9497         0.012345   
    164. D(O   2,C  16,C   7,C   8)    156.5858         0.012345   
    165. D(O   2,C  16,C   7,N   5)    -24.8002         0.012345   
    166. D(H  18,C  16,O   2,Mn  0)    -87.6263         0.022326   
    167. D(H  17,C  16,O   2,H   3)    -82.1370         0.022326   
    168. D(H  17,C  16,C   7,C   8)     38.4363         0.012345   
    169. D(H  17,C  16,O   2,Mn  0)    152.6918         0.022326   
    170. D(C   7,C  16,O   2,H   3)    159.7484         0.022326   
    171. D(C   7,C  16,O   2,Mn  0)     34.5771         0.022326   
    172. D(C  34,O  20,Mn  0,N   5)    175.0915         0.001712   
    173. D(C  34,O  20,Mn  0,N   4)    -29.9776         0.001712   
    174. D(C  34,O  20,Mn  0,O   2)   -113.2818         0.001712   
    175. D(H  21,O  20,Mn  0,N  23)   -149.2549         0.001712   
    176. D(H  21,O  20,Mn  0,N  22)    -43.9568         0.001712   
    177. D(H  21,O  20,Mn  0,N   5)     51.8361         0.001712   
    178. D(H  21,O  20,Mn  0,N   4)   -153.2330         0.001712   
    179. D(C  34,O  20,Mn  0,N  22)     79.2987         0.001712   
    180. D(H  21,O  20,Mn  0,O   2)    123.4628         0.001712   
    181. D(C  34,O  20,Mn  0,N  23)    -25.9994         0.001712   
    182. D(C  32,N  23,Mn  0,N  22)    112.2483         0.001886   
    183. D(C  32,N  23,Mn  0,O  20)   -166.9754         0.001886   
    184. D(C  32,N  23,Mn  0,N   5)   -118.5292         0.001886   
    185. D(C  32,N  23,Mn  0,N   4)     12.1515         0.001886   
    186. D(C  32,N  23,Mn  0,O   2)    -73.2092         0.001886   
    187. D(C  25,N  23,Mn  0,N  22)    -68.2359         0.001886   
    188. D(C  25,N  23,Mn  0,O  20)     12.5403         0.001886   
    189. D(C  25,N  23,Mn  0,N   5)     60.9865         0.001886   
    190. D(C  25,N  23,Mn  0,N   4)   -168.3328         0.001886   
    191. D(C  25,N  23,Mn  0,O   2)    106.3065         0.001886   
    192. D(C  34,C  25,N  23,C  32)   -178.4060         0.038369   
    193. D(C  34,C  25,N  23,Mn  0)      2.0538         0.038369   
    194. D(C  26,C  25,N  23,C  32)      0.1978         0.038369   
    195. D(C  26,C  25,N  23,Mn  0)   -179.3423         0.038369   
    196. D(C  28,C  26,C  25,C  34)    178.3790         0.030570   
    197. D(C  28,C  26,C  25,N  23)     -0.1663         0.030570   
    198. D(H  27,C  26,C  25,C  34)     -1.6723         0.030570   
    199. D(H  27,C  26,C  25,N  23)    179.7824         0.030570   
    200. D(C  30,C  28,C  26,H  27)   -179.6790         0.032480   
    201. D(C  30,C  28,C  26,C  25)      0.2697         0.032480   
    202. D(H  29,C  28,C  26,H  27)      0.3992         0.032480   
    203. D(H  29,C  28,C  26,C  25)   -179.6521         0.032480   
    204. D(C  32,C  30,C  28,H  29)    179.5159         0.030551   
    205. D(C  32,C  30,C  28,C  26)     -0.4060         0.030551   
    206. D(H  31,C  30,C  28,H  29)     -0.5882         0.030551   
    207. D(H  31,C  30,C  28,C  26)    179.4899         0.030551   
    208. D(H  33,C  32,C  30,H  31)      0.5959         0.031449   
    209. D(H  33,C  32,C  30,C  28)   -179.5083         0.031449   
    210. D(N  23,C  32,C  30,H  31)   -179.4389         0.031449   
    211. D(N  23,C  32,C  30,C  28)      0.4569         0.031449   
    212. D(H  33,C  32,N  23,C  25)    179.6171         0.037092   
    213. D(H  33,C  32,N  23,Mn  0)     -0.8656         0.037092   
    214. D(C  30,C  32,N  23,C  25)     -0.3482         0.037092   
    215. D(C  30,C  32,N  23,Mn  0)    179.1692         0.037092   
    216. D(H  36,C  34,C  25,N  23)     96.5359         0.012345   
    217. D(H  35,C  34,C  25,N  23)   -142.9497         0.012345   
    218. D(O  20,C  34,C  25,C  26)    156.5858         0.012345   
    219. D(O  20,C  34,C  25,N  23)    -24.8002         0.012345   
    220. D(H  36,C  34,O  20,Mn  0)    -87.6279         0.022326   
    221. D(H  35,C  34,O  20,H  21)    -82.1370         0.022326   
    222. D(H  35,C  34,O  20,Mn  0)    152.6901         0.022326   
    223. D(H  35,C  34,C  25,C  26)     38.4363         0.012345   
    224. D(C  25,C  34,O  20,H  21)    159.7484         0.022326   
    225. D(C  25,C  34,O  20,Mn  0)     34.5755         0.022326   
    -----------------------------------------------------------------

Number of atoms                         .... 37
Number of degrees of freedom            .... 225


         *************************************************************
         *                GEOMETRY OPTIMIZATION CYCLE   1            *
         *************************************************************
---------------------------------
CARTESIAN COORDINATES (ANGSTROEM)
---------------------------------
  Mn     5.738200    1.727800    4.477300
  S      7.928100   -1.515200    1.528900
  O      6.370000    3.312300    2.929600
  H      7.183000    3.217400    2.684600
  N      6.749200    0.339300    3.222600
  N      3.953600    2.278400    3.278300
  C      7.248400   -0.418200    2.514800
  C      4.129200    2.988100    2.160200
  C      3.071100    3.376900    1.374000
  H      3.219100    3.873200    0.601700
  C      1.799500    3.030100    1.735400
  H      1.074200    3.282000    1.210700
  C      1.607800    2.301900    2.885200
  H      0.751700    2.060100    3.155600
  C      2.703800    1.941700    3.625500
  H      2.575300    1.442800    4.400300
  C      5.547600    3.319000    1.777700
  H      5.560300    4.211700    1.398700
  H      5.883900    2.695800    1.142600
  S      3.548200   -1.515200    7.425700
  O      5.106300    3.312300    6.025000
  H      4.293300    3.217400    6.270000
  N      4.727100    0.339300    5.732000
  N      7.522700    2.278400    5.676300
  C      4.227900   -0.418200    6.439800
  C      7.347100    2.988100    6.794400
  C      8.405200    3.376900    7.580600
  H      8.257200    3.873200    8.352900
  C      9.676800    3.030100    7.219200
  H     10.402100    3.282000    7.743900
  C      9.868500    2.301900    6.069400
  H     10.724600    2.060100    5.799000
  C      8.772500    1.941700    5.329100
  H      8.901000    1.442800    4.554300
  C      5.928700    3.319000    7.176900
  H      5.916000    4.211700    7.555900
  H      5.592400    2.695800    7.812000

----------------------------
CARTESIAN COORDINATES (A.U.)
----------------------------
  NO LB      ZA    FRAG     MASS         X           Y           Z
   0 Mn   25.0000    0    54.940   10.843627    3.265069    8.460871
   1 S    16.0000    0    32.060   14.981938   -2.863313    2.889202
   2 O     8.0000    0    15.999   12.037555    6.259340    5.536142
   3 H     1.0000    0     1.008   13.573903    6.080005    5.073159
   4 N     7.0000    0    14.007   12.754140    0.641184    6.089831
   5 N     7.0000    0    14.007    7.471221    4.305552    6.195089
   6 C     6.0000    0    12.011   13.697491   -0.790283    4.752283
   7 C     6.0000    0    12.011    7.803057    5.646691    4.082186
   8 C     6.0000    0    12.011    5.803538    6.381416    2.596484
   9 H     1.0000    0     1.008    6.083217    7.319287    1.137048
  10 C     6.0000    0    12.011    3.400562    5.726059    3.279431
  11 H     1.0000    0     1.008    2.029944    6.202081    2.287891
  12 C     6.0000    0    12.011    3.038302    4.349961    5.452238
  13 H     1.0000    0     1.008    1.420507    3.893025    5.963220
  14 C     6.0000    0    12.011    5.109442    3.669281    6.851202
  15 H     1.0000    0     1.008    4.866612    2.726497    8.315362
  16 C     6.0000    0    12.011   10.483445    6.272001    3.359366
  17 H     1.0000    0     1.008   10.507444    7.958960    2.643160
  18 H     1.0000    0     1.008   11.118960    5.094324    2.159201
  19 S    16.0000    0    32.060    6.705126   -2.863313   14.032539
  20 O     8.0000    0    15.999    9.649509    6.259340   11.385600
  21 H     1.0000    0     1.008    8.113161    6.080005   11.848583
  22 N     7.0000    0    14.007    8.932924    0.641184   10.831910
  23 N     7.0000    0    14.007   14.215843    4.305552   10.726652
  24 C     6.0000    0    12.011    7.989573   -0.790283   12.169458
  25 C     6.0000    0    12.011   13.884007    5.646691   12.839555
  26 C     6.0000    0    12.011   15.883526    6.381416   14.325258
  27 H     1.0000    0     1.008   15.603847    7.319287   15.784693
  28 C     6.0000    0    12.011   18.286502    5.726059   13.642311
  29 H     1.0000    0     1.008   19.657120    6.202081   14.633850
  30 C     6.0000    0    12.011   18.648762    4.349961   11.469504
  31 H     1.0000    0     1.008   20.266557    3.893025   10.958522
  32 C     6.0000    0    12.011   16.577623    3.669281   10.070540
  33 H     1.0000    0     1.008   16.820452    2.726497    8.606380
  34 C     6.0000    0    12.011   11.203619    6.272001   13.562375
  35 H     1.0000    0     1.008   11.179620    7.958960   14.278582
  36 H     1.0000    0     1.008   10.568104    5.094324   14.762541

--------------------------------
INTERNAL COORDINATES (ANGSTROEM)
--------------------------------
 Mn     0   0   0     0.000000000000     0.00000000     0.00000000
 S      1   0   0     4.899568712652     0.00000000     0.00000000
 O      1   2   0     2.303299107802    85.89275661     0.00000000
 H      3   1   2     0.854400380384   112.16550805   314.23185906
 N      1   2   3     2.127046153707     1.83715512   280.98478431
 N      1   2   3     2.219359934756   101.44973690    70.43710361
 C      5   1   6     1.150646657319   177.20000792   342.30564335
 C      6   1   2     1.335910573354   118.57204045   290.80416059
 C      8   6   1     1.374354935961   121.86171915   180.65738769
 H      9   8   6     0.929873636576   120.23617659   179.78244576
 C      9   8   6     1.366691903832   119.55547900   359.83374901
 H     11   9   8     0.929959025979   120.51262198   180.34787897
 C     11   9   8     1.374432308264   119.04061747     0.26970661
 H     13  11   9     0.929779871798   120.63048212   179.48990730
 C      6   1   2     1.340117446346   123.20343259   111.28816499
 H     15   6   1     0.930445323488   118.63694204   359.13465566
 C      3   1   2     1.415365768980   113.00060707    77.48694295
 H     17   3   1     0.969904933486   108.34692159   152.69177815
 H     17   3   1     0.951224442495   109.56361357   272.37374177
 S     16  15   6     4.341583071876   156.15547994   326.42760706
 O      1   2   3     2.303326540029   169.20425866   275.16832273
 H     21   1   5     0.854400380384   112.16778595   206.76696422
 N      1   2   3     2.127093686230    97.77921207   167.84839957
 N      1   2   3     2.219279524981    97.46584155   272.17379241
 C     23   1   2     1.150646657319   177.19775274    81.85761505
 C     24   1   2     1.335910573354   118.57355741   191.94995067
 C     26  24   1     1.374354935961   121.86171915   180.65765336
 H     27  26  24     0.929873636576   120.23617659   179.78244576
 C     27  26  24     1.366691903832   119.55547900   359.83374901
 H     29  27  26     0.929959025979   120.51262198   180.34787897
 C     29  27  26     1.374432308264   119.04061747     0.26970661
 H     31  29  27     0.929779871798   120.63048212   179.48990730
 C     24   1   2     1.340117446346   123.20191370    12.43422643
 H     33  24   1     0.930445323488   118.63694204   359.13439215
 C     21   1   5     1.415365768980   112.99874721   330.02238912
 H     35  21   1     0.969904933486   108.34692159   152.69014387
 H     35  21   1     0.951224442495   109.56361357   272.37210749

---------------------------
INTERNAL COORDINATES (A.U.)
---------------------------
 Mn     0   0   0     0.000000000000     0.00000000     0.00000000
 S      1   0   0     9.258843041242     0.00000000     0.00000000
 O      1   2   0     4.352604518250    85.89275661     0.00000000
 H      3   1   2     1.614582727644   112.16550805   314.23185906
 N      1   2   3     4.019534704717     1.83715512   280.98478431
 N      1   2   3     4.193982469286   101.44973690    70.43710361
 C      5   1   6     2.174407059245   177.20000792   342.30564335
 C      6   1   2     2.524505123049   118.57204045   290.80416059
 C      8   6   1     2.597154439769   121.86171915   180.65738769
 H      9   8   6     1.757206512283   120.23617659   179.78244576
 C      9   8   6     2.582673407690   119.55547900   359.83374901
 H     11   9   8     1.757367874869   120.51262198   180.34787897
 C     11   9   8     2.597300652232   119.04061747     0.26970661
 H     13  11   9     1.757029322530   120.63048212   179.48990730
 C      6   1   2     2.532454960883   123.20343259   111.28816499
 H     15   6   1     1.758286843979   118.63694204   359.13465566
 C      3   1   2     2.674653682699   113.00060707    77.48694295
 H     17   3   1     1.832854700227   108.34692159   152.69177815
 H     17   3   1     1.797553688208   109.56361357   272.37374177
 S     16  15   6     8.204402993514   156.15547994   326.42760706
 O      1   2   3     4.352656357646   169.20425866   275.16832273
 H     21   1   5     1.614582727644   112.16778595   206.76696422
 N      1   2   3     4.019624528168    97.77921207   167.84839957
 N      1   2   3     4.193830516833    97.46584155   272.17379241
 C     23   1   2     2.174407059245   177.19775274    81.85761505
 C     24   1   2     2.524505123049   118.57355741   191.94995067
 C     26  24   1     2.597154439769   121.86171915   180.65765336
 H     27  26  24     1.757206512283   120.23617659   179.78244576
 C     27  26  24     2.582673407690   119.55547900   359.83374901
 H     29  27  26     1.757367874869   120.51262198   180.34787897
 C     29  27  26     2.597300652232   119.04061747     0.26970661
 H     31  29  27     1.757029322530   120.63048212   179.48990730
 C     24   1   2     2.532454960883   123.20191370    12.43422643
 H     33  24   1     1.758286843979   118.63694204   359.13439215
 C     21   1   5     2.674653682699   112.99874721   330.02238912
 H     35  21   1     1.832854700227   108.34692159   152.69014387
 H     35  21   1     1.797553688208   109.56361357   272.37210749

---------------------
BASIS SET INFORMATION
---------------------
There are 6 groups of distinct atoms

 Group   1 Type Mn  : 17s11p7d1f contracted to 6s4p4d1f pattern {842111/6311/4111/1}
 Group   2 Type S   : 14s9p3d1f contracted to 5s5p2d1f pattern {73211/51111/21/1}
 Group   3 Type O   : 11s6p2d1f contracted to 5s3p2d1f pattern {62111/411/11/1}
 Group   4 Type H   : 5s1p contracted to 3s1p pattern {311/1}
 Group   5 Type N   : 11s6p2d1f contracted to 5s3p2d1f pattern {62111/411/11/1}
 Group   6 Type C   : 11s6p2d1f contracted to 5s3p2d1f pattern {62111/411/11/1}

Atom   0Mn   basis set group =>   1
Atom   1S    basis set group =>   2
Atom   2O    basis set group =>   3
Atom   3H    basis set group =>   4
Atom   4N    basis set group =>   5
Atom   5N    basis set group =>   5
Atom   6C    basis set group =>   6
Atom   7C    basis set group =>   6
Atom   8C    basis set group =>   6
Atom   9H    basis set group =>   4
Atom  10C    basis set group =>   6
Atom  11H    basis set group =>   4
Atom  12C    basis set group =>   6
Atom  13H    basis set group =>   4
Atom  14C    basis set group =>   6
Atom  15H    basis set group =>   4
Atom  16C    basis set group =>   6
Atom  17H    basis set group =>   4
Atom  18H    basis set group =>   4
Atom  19S    basis set group =>   2
Atom  20O    basis set group =>   3
Atom  21H    basis set group =>   4
Atom  22N    basis set group =>   5
Atom  23N    basis set group =>   5
Atom  24C    basis set group =>   6
Atom  25C    basis set group =>   6
Atom  26C    basis set group =>   6
Atom  27H    basis set group =>   4
Atom  28C    basis set group =>   6
Atom  29H    basis set group =>   4
Atom  30C    basis set group =>   6
Atom  31H    basis set group =>   4
Atom  32C    basis set group =>   6
Atom  33H    basis set group =>   4
Atom  34C    basis set group =>   6
Atom  35H    basis set group =>   4
Atom  36H    basis set group =>   4
---------------------------------
AUXILIARY/J BASIS SET INFORMATION
---------------------------------
There are 6 groups of distinct atoms

 Group   1 Type Mn  : 19s5p5d3f3g contracted to 8s5p5d2f3g pattern {121111111/11111/11111/21/111}
 Group   2 Type S   : 14s5p5d2f1g contracted to 8s4p3d1f1g pattern {71111111/2111/311/2/1}
 Group   3 Type O   : 12s5p4d2f1g contracted to 6s4p3d1f1g pattern {711111/2111/211/2/1}
 Group   4 Type H   : 5s2p1d contracted to 3s1p1d pattern {311/2/1}
 Group   5 Type N   : 12s5p4d2f1g contracted to 6s4p3d1f1g pattern {711111/2111/211/2/1}
 Group   6 Type C   : 12s5p4d2f1g contracted to 6s4p3d1f1g pattern {711111/2111/211/2/1}

Atom   0Mn   basis set group =>   1
Atom   1S    basis set group =>   2
Atom   2O    basis set group =>   3
Atom   3H    basis set group =>   4
Atom   4N    basis set group =>   5
Atom   5N    basis set group =>   5
Atom   6C    basis set group =>   6
Atom   7C    basis set group =>   6
Atom   8C    basis set group =>   6
Atom   9H    basis set group =>   4
Atom  10C    basis set group =>   6
Atom  11H    basis set group =>   4
Atom  12C    basis set group =>   6
Atom  13H    basis set group =>   4
Atom  14C    basis set group =>   6
Atom  15H    basis set group =>   4
Atom  16C    basis set group =>   6
Atom  17H    basis set group =>   4
Atom  18H    basis set group =>   4
Atom  19S    basis set group =>   2
Atom  20O    basis set group =>   3
Atom  21H    basis set group =>   4
Atom  22N    basis set group =>   5
Atom  23N    basis set group =>   5
Atom  24C    basis set group =>   6
Atom  25C    basis set group =>   6
Atom  26C    basis set group =>   6
Atom  27H    basis set group =>   4
Atom  28C    basis set group =>   6
Atom  29H    basis set group =>   4
Atom  30C    basis set group =>   6
Atom  31H    basis set group =>   4
Atom  32C    basis set group =>   6
Atom  33H    basis set group =>   4
Atom  34C    basis set group =>   6
Atom  35H    basis set group =>   4
Atom  36H    basis set group =>   4


           ************************************************************
           *        Program running with 16 parallel MPI-processes    *
           *              working on a common directory               *
           ************************************************************
------------------------------------------------------------------------------
                             ORCA STARTUP CALCULATIONS
                           -- RI-GTO INTEGRALS CHOSEN --
------------------------------------------------------------------------------
------------------------------------------------------------------------------
                   ___                                                        
                  /   \      - P O W E R E D   B Y -                         
                 /     \                                                     
                 |  |  |   _    _      __       _____    __    __             
                 |  |  |  | |  | |    /  \     |  _  \  |  |  /  |          
                  \  \/   | |  | |   /    \    | | | |  |  | /  /          
                 / \  \   | |__| |  /  /\  \   | |_| |  |  |/  /          
                |  |  |   |  __  | /  /__\  \  |    /   |      \           
                |  |  |   | |  | | |   __   |  |    \   |  |\   \          
                \     /   | |  | | |  |  |  |  | |\  \  |  | \   \       
                 \___/    |_|  |_| |__|  |__|  |_| \__\ |__|  \__/        
                                                                              
                      - O R C A' S   B I G   F R I E N D -                    
                                      &                                       
                       - I N T E G R A L  F E E D E R -                       
                                                                              
 v1 FN, 2020, v2 2021, v3 2022-2024                                           
------------------------------------------------------------------------------


----------------------
SHARK INTEGRAL PACKAGE
----------------------

Number of atoms                             ...     37
Number of basis functions                   ...    823
Number of shells                            ...    317
Maximum angular momentum                    ...      3
Integral batch strategy                     ... SHARK/LIBINT Hybrid
RI-J (if used) integral strategy            ... SPLIT-RIJ (Revised 2003 algorithm where possible)
Printlevel                                  ...      1
Contraction scheme used                     ... SEGMENTED contraction
Prescreening option                         ... SCHWARTZ
   Thresh                                   ... 2.500e-11
   Tcut                                     ... 2.500e-12
   Tpresel                                  ... 2.500e-12 
Coulomb Range Separation                    ... NOT USED
Exchange Range Separation                   ... NOT USED
Multipole approximations                    ... NOT USED
Finite Nucleus Model                        ... NOT USED
CABS basis                                  ... NOT available
Auxiliary Coulomb fitting basis             ... AVAILABLE
   # of basis functions in Aux-J            ...   1325
   # of shells in Aux-J                     ...    427
   Maximum angular momentum in Aux-J        ...      4
Auxiliary J/K fitting basis                 ... NOT available
Auxiliary Correlation fitting basis         ... NOT available
Auxiliary 'external' fitting basis          ... NOT available

Checking pre-screening integrals            ... done (  0.0 sec) Dimension = 317
Check shell pair data                       ... done (  0.0 sec)
Shell pair information
Shell pair cut-off parameter TPreSel        ...   2.5e-12
Total number of shell pairs                 ...     50403
Shell pairs after pre-screening             ...     34493
Total number of primitive shell pairs       ...    165638
Primitive shell pairs kept                  ...     71581
          la=0 lb=0:   8289 shell pairs
          la=1 lb=0:   9846 shell pairs
          la=1 lb=1:   2960 shell pairs
          la=2 lb=0:   5080 shell pairs
          la=2 lb=1:   3072 shell pairs
          la=2 lb=2:    829 shell pairs
          la=3 lb=0:   2186 shell pairs
          la=3 lb=1:   1376 shell pairs
          la=3 lb=2:    702 shell pairs
          la=3 lb=3:    153 shell pairs

Calculating one electron integrals          ... done (  0.0 sec)
done (  0.1 sec)
Calculating Nuclear repulsion               ... done (  0.0 sec) ENN=   2599.323073883573 Eh

Diagonalization of the overlap matrix:
Smallest eigenvalue                        ... 2.399e-05
Time for diagonalization                   ...    0.087 sec
Threshold for overlap eigenvalues          ... 1.000e-07
Number of eigenvalues below threshold      ... 0
Time for construction of square roots      ...    0.057 sec
Total time needed                          ...    0.160 sec

-------------------
DFT GRID GENERATION
-------------------

General Integration Accuracy     IntAcc      ... 4.959
Radial Grid Type                 RadialGrid  ... OptM3 with GC (2021)
Angular Grid (max. ang.)         AngularGrid ... 6 (Lebedev-590)
Angular grid pruning method      GridPruning ... 4 (adaptive)
Weight generation scheme         WeightScheme... mBecke (2022)
Basis function cutoff            BFCut       ... 1.0000e-11
Integration weight cutoff        WCut        ... 1.0000e-14
Partially contracted basis set               ... off
Rotationally invariant grid construction     ... off
Angular grids for H and He will be reduced by one unit
Core-polarized basis detected: some atoms will have their core
                               angular grid increased.

Total number of grid points                  ...   462718
Total number of batches                      ...     7247
Average number of points per batch           ...       63
Average number of grid points per atom       ...    12506

--------------------
COSX GRID GENERATION
--------------------

GRIDX 1
-------
General Integration Accuracy     IntAcc      ... 4.020
Radial Grid Type                 RadialGrid  ... OptM3 with GC (2021)
Angular Grid (max. ang.)         AngularGrid ... 2 (Lebedev-110)
Angular grid pruning method      GridPruning ... 4 (adaptive)
Weight generation scheme         WeightScheme... mBecke (2022)
Basis function cutoff            BFCut       ... 1.0000e-11
Integration weight cutoff        WCut        ... 1.0000e-14
Partially contracted basis set               ... on
Rotationally invariant grid construction     ... off
Angular grids for H and He will be reduced by one unit
Core-polarized basis detected: some atoms will have their core
                               angular grid increased.

Total number of grid points                  ...    54764
Total number of batches                      ...      445
Average number of points per batch           ...      123
Average number of grid points per atom       ...     1480
UseSFitting                                  ... on

GRIDX 2
-------
General Integration Accuracy     IntAcc      ... 4.338
Radial Grid Type                 RadialGrid  ... OptM3 with GC (2021)
Angular Grid (max. ang.)         AngularGrid ... 3 (Lebedev-194)
Angular grid pruning method      GridPruning ... 4 (adaptive)
Weight generation scheme         WeightScheme... mBecke (2022)
Basis function cutoff            BFCut       ... 1.0000e-11
Integration weight cutoff        WCut        ... 1.0000e-14
Partially contracted basis set               ... on
Rotationally invariant grid construction     ... off
Angular grids for H and He will be reduced by one unit
Core-polarized basis detected: some atoms will have their core
                               angular grid increased.

Total number of grid points                  ...   114822
Total number of batches                      ...      916
Average number of points per batch           ...      125
Average number of grid points per atom       ...     3103
UseSFitting                                  ... on

GRIDX 3
-------
General Integration Accuracy     IntAcc      ... 4.871
Radial Grid Type                 RadialGrid  ... OptM3 with GC (2021)
Angular Grid (max. ang.)         AngularGrid ... 4 (Lebedev-302)
Angular grid pruning method      GridPruning ... 4 (adaptive)
Weight generation scheme         WeightScheme... mBecke (2022)
Basis function cutoff            BFCut       ... 1.0000e-11
Integration weight cutoff        WCut        ... 1.0000e-14
Partially contracted basis set               ... on
Rotationally invariant grid construction     ... off
Angular grids for H and He will be reduced by one unit
Core-polarized basis detected: some atoms will have their core
                               angular grid increased.

Total number of grid points                  ...   212616
Total number of batches                      ...     1684
Average number of points per batch           ...      126
Average number of grid points per atom       ...     5746
UseSFitting                                  ... on
Initializing property integral containers    ... done (  0.0 sec)

SHARK setup successfully completed in   6.1 seconds

Maximum memory used throughout the entire STARTUP-calculation: 136.6 MB


           ************************************************************
           *        Program running with 16 parallel MPI-processes    *
           *              working on a common directory               *
           ************************************************************
-------------------------------------------------------------------------------
                                 ORCA GUESS
                   Start orbitals & Density for SCF / CASSCF
-------------------------------------------------------------------------------

------------
SCF SETTINGS
------------
Hamiltonian:
 Density Functional     Method          .... DFT(GTOs)
 Exchange Functional    Exchange        .... PBE
   PBE kappa parameter   XKappa         ....  0.804000
   PBE mue parameter    XMuePBE         ....  0.219520
 Correlation Functional Correlation     .... PBE
   PBE beta parameter  CBetaPBE         ....  0.066725
 LDA part of GGA corr.  LDAOpt          .... PW91-LDA
 Gradients option       PostSCFGGA      .... off
 Hybrid DFT is turned on
   Fraction HF Exchange ScalHFX         ....  0.250000
   Scaling of DF-GGA-X  ScalDFX         ....  0.750000
   Scaling of DF-GGA-C  ScalDFC         ....  1.000000
   Scaling of DF-LDA-C  ScalLDAC        ....  1.000000
   Perturbative correction              ....  0.000000
   NL short-range parameter             ....  6.900000
 RI-approximation to the Coulomb term is turned on
   Number of AuxJ basis functions       .... 1325
   RIJ-COSX (HFX calculated with COS-X)).... on


General Settings:
 Integral files         IntName         .... XAKDOE01-S6
 Hartree-Fock type      HFTyp           .... UHF
 Total Charge           Charge          ....    0
 Multiplicity           Mult            ....    2
 Number of Electrons    NEL             ....  199
 Basis Dimension        Dim             ....  823
 Nuclear Repulsion      ENuc            ....   2599.3230738836 Eh

Convergence Acceleration:
 AO-DIIS                CNVDIIS         .... on
   Start iteration      DIISMaxIt       ....    12
   Startup error        DIISStart       ....  0.200000
   # of expansion vecs  DIISMaxEq       ....     5
   Bias factor          DIISBfac        ....   1.050
   Max. coefficient     DIISMaxC        ....  10.000
 MO-DIIS                CNVKDIIS        .... off
 Trust-Rad. Augm. Hess. CNVTRAH         .... auto
   Auto Start mean grad. ratio tolernc. ....  1.125000
   Auto Start start iteration           ....    50
   Auto Start num. interpolation iter.  ....    10
   Max. Number of Micro iterations      ....    24
   Max. Number of Macro iterations      .... Maxiter - #DIIS iter
   Number of Davidson start vectors     ....     2
   Converg. threshold    (grad. norm)   ....   1.000e-05
   Grad. Scal. Fac. for Micro threshold ....   0.100
   Minimum threshold for Micro iter.    ....   1.000e-02
   NR start threshold (gradient norm)   ....   1.000e-04
   Initial trust radius                 ....   0.400
   Minimum AH scaling param. (alpha)    ....   1.000
   Maximum AH scaling param. (alpha)    .... 1000.000
   Quad. conv. algorithm                .... NR
   White noise on init. David. guess    .... on
   Maximum white noise                  ....   0.010
   Pseudo random numbers                .... off
   Inactive MOs                         .... canonical
   Orbital update algorithm             .... Taylor
   Preconditioner                       .... Diag
   Full preconditioner red. dimension   ....   250
 SOSCF                  CNVSOSCF        .... on
   Start iteration      SOSCFMaxIt      ....   150
   Startup grad/error   SOSCFStart      ....  0.003300
   Hessian update       SOSCFHessUp     .... L-BFGS
 Level Shifting         CNVShift        .... on
   Level shift para.    LevelShift      ....    0.2500
   Turn off err/grad.   ShiftErr        ....    0.0010
 Zerner damping         CNVZerner       .... off
 Static damping         CNVDamp         .... on
   Fraction old density DampFac         ....    0.7000
   Max. Damping (<1)    DampMax         ....    0.9800
   Min. Damping (>=0)   DampMin         ....    0.0000
   Turn off err/grad.   DampErr         ....    0.1000

SCF Procedure:
 Maximum # iterations   MaxIter         ....   125
 SCF integral mode      SCFMode         .... Direct
   Integral package                     .... SHARK and LIBINT hybrid scheme
 Reset frequency        DirectResetFreq ....    20
 Integral Threshold     Thresh          ....  2.500e-11 Eh
 Primitive CutOff       TCut            ....  2.500e-12 Eh

Convergence Tolerance:
 Convergence Check Mode ConvCheckMode   .... Total+1el-Energy
 Convergence forced     ConvForced      .... 0
 Energy Change          TolE            ....  1.000e-08 Eh
 1-El. energy change                    ....  1.000e-05 Eh
 Orbital Gradient       TolG            ....  1.000e-05
 Orbital Rotation angle TolX            ....  1.000e-05
 DIIS Error             TolErr          ....  5.000e-07

------------------------------
INITIAL GUESS: MODEL POTENTIAL
------------------------------
Loading Hartree-Fock densities                     ... done
Calculating cut-offs                               ... done
Initializing the effective Hamiltonian             ... done
Setting up the integral package (SHARK)            ... done
done (   0.2 sec)
Making the grid                                    ... done (   0.2 sec)
Mapping shells                                     ... done
Starting the XC term evaluation                    ... done (   0.1 sec)
  promolecular density results
     # of electrons  =    198.991725030
     EX              =   -219.041554833
     EC              =     -7.123999562
     EX+EC           =   -226.165554394
Transforming the Hamiltonian                       ... done (   0.1 sec)
done (   0.1 sec)
Back transforming the eigenvectors                 ... done (   0.0 sec)
done
                      ------------------
                      INITIAL GUESS DONE (   0.9 sec)
                      ------------------
             **** ENERGY FILE WAS UPDATED (XAKDOE01-S6.en.tmp) ****
Finished Guess after   1.2 sec
Maximum memory used throughout the entire GUESS-calculation: 66.4 MB


           ************************************************************
           *        Program running with 16 parallel MPI-processes    *
           *              working on a common directory               *
           ************************************************************

-------------------------------------------------------------------------------------------
                                      ORCA LEAN-SCF
                              memory conserving SCF solver
-------------------------------------------------------------------------------------------

----------------------------------------D-I-I-S--------------------------------------------
Iteration    Energy (Eh)           Delta-E    RMSDP     MaxDP     DIISErr   Damp  Time(sec)
-------------------------------------------------------------------------------------------
               ***  Starting incremental Fock matrix formation  ***
    1    -2856.5697894984173217     0.00e+00  5.72e-04  5.68e-02  1.58e-01  0.700  12.0
Warning: op=0 Small HOMO/LUMO gap (   0.054) - skipping pre-diagonalization
         Will do a full diagonalization
    2    -2856.8968139755402262    -3.27e-01  4.12e-04  2.57e-02  4.74e-02  0.700   7.0
                               ***Turning on AO-DIIS***
    3    -2857.0431729480046670    -1.46e-01  1.79e-04  1.50e-02  1.96e-02  0.700   6.2
    4    -2857.1361788888939373    -9.30e-02  3.56e-04  3.00e-02  1.19e-02  0.000   5.9
    5    -2857.3479570234089806    -2.12e-01  8.53e-05  6.16e-03  6.29e-03  0.000   6.2
    6    -2857.3509224614513187    -2.97e-03  5.21e-05  4.94e-03  6.60e-03  0.000   5.6
    7    -2857.3517244184690753    -8.02e-04  2.66e-05  2.25e-03  6.84e-03  0.000   5.3
                              *** Initializing SOSCF ***
---------------------------------------S-O-S-C-F--------------------------------------
Iteration    Energy (Eh)           Delta-E    RMSDP     MaxDP     MaxGrad    Time(sec)
--------------------------------------------------------------------------------------
    8    -2857.3523445505047675    -6.20e-04  2.12e-05  1.77e-03  1.16e-03     5.6
               *** Restarting incremental Fock matrix formation ***
    9    -2857.3526241363174449    -2.80e-04  2.92e-05  2.92e-03  2.41e-03    11.6
   10    -2857.3528220041212080    -1.98e-04  2.83e-05  4.82e-03  1.03e-03     8.0
   11    -2857.3528744688087500    -5.25e-05  2.35e-05  5.14e-03  1.12e-03     8.0
   12    -2857.3529787261145430    -1.04e-04  1.03e-04  2.29e-02  1.56e-03     7.7
               *** Scaled step length from 1.866581 to 0.200000 ***
Curvature condition for BFGS not met. Restarting diagonal Hessian.
   13    -2857.3535849317854627    -6.06e-04  4.34e-04  3.51e-02  3.76e-03     9.0
   14    -2857.3490286384881074     4.56e-03  3.97e-04  3.40e-02  1.42e-02     9.9
   15    -2857.3519766516578784    -2.95e-03  3.32e-04  2.65e-02  7.30e-03    10.0
   16    -2857.3528243166178981    -8.48e-04  2.25e-04  1.92e-02  7.27e-03     9.9
   17    -2857.3556955202561767    -2.87e-03  2.26e-04  1.95e-02  5.37e-03     9.6
   18    -2857.3574107830586399    -1.72e-03  1.82e-04  4.82e-02  9.07e-03     9.7
               *** Scaled step length from 0.876360 to 0.200000 ***
   19    -2857.3618137719045080    -4.40e-03  1.80e-04  5.33e-02  7.10e-03     9.0
   20    -2857.3643084623149662    -2.49e-03  1.60e-04  1.26e-02  9.18e-03     8.9
   21    -2857.3653995876534282    -1.09e-03  3.78e-05  4.92e-03  2.73e-03     9.4
   22    -2857.3657175608564103    -3.18e-04  6.57e-05  1.44e-02  3.04e-03     8.3
               *** Scaled step length from 0.542872 to 0.200000 ***
   23    -2857.3665007552558563    -7.83e-04  1.69e-04  4.05e-02  3.86e-03     8.3
               *** Scaled step length from 0.584731 to 0.200000 ***
   24    -2857.3682269791074759    -1.73e-03  1.67e-04  3.95e-02  5.23e-03     8.9
   25    -2857.3693548583537449    -1.13e-03  8.90e-05  2.01e-02  8.91e-03     8.8
   26    -2857.3707643446064139    -1.41e-03  1.49e-04  2.76e-02  7.33e-03     8.7
   27    -2857.3724975755544619    -1.73e-03  5.92e-05  7.69e-03  3.77e-03     9.1
   28    -2857.3728757124249569    -3.78e-04  3.35e-05  2.98e-03  1.60e-03     8.7
               *** Restarting incremental Fock matrix formation ***
   29    -2857.3730625998546202    -1.87e-04  2.00e-05  3.49e-03  1.02e-03    11.6
   30    -2857.3731493962009154    -8.68e-05  1.67e-05  2.81e-03  9.33e-04     7.8
   31    -2857.3732089104673832    -5.95e-05  1.87e-05  3.89e-03  6.73e-04     7.6
   32    -2857.3732511352532129    -4.22e-05  1.97e-05  3.34e-03  7.34e-04     7.4
   33    -2857.3732858126918472    -3.47e-05  2.10e-05  4.14e-03  4.26e-04     7.4
   34    -2857.3733030419566603    -1.72e-05  8.92e-06  1.19e-03  3.00e-04     7.4
   35    -2857.3733124115128703    -9.37e-06  7.44e-06  1.23e-03  2.69e-04     6.8
   36    -2857.3733200925303208    -7.68e-06  7.36e-06  1.15e-03  2.09e-04     6.8
   37    -2857.3733246536262413    -4.56e-06  3.55e-06  5.25e-04  1.09e-04     6.7
   38    -2857.3733257087847051    -1.06e-06  2.18e-06  2.90e-04  1.06e-04     6.3
   39    -2857.3733266589511004    -9.50e-07  1.67e-06  2.44e-04  7.97e-05     6.0
   40    -2857.3733270649613587    -4.06e-07  1.46e-06  2.38e-04  7.51e-05     5.7
   41    -2857.3733274240398714    -3.59e-07  5.07e-06  8.42e-04  7.15e-05     5.4
   42    -2857.3733281217505464    -6.98e-07  2.49e-06  4.92e-04  6.09e-05     6.3
   43    -2857.3733283758606376    -2.54e-07  2.43e-06  4.47e-04  7.04e-05     5.8
   44    -2857.3733286788415171    -3.03e-07  3.03e-06  7.66e-04  7.08e-05     5.8
   45    -2857.3733290693630806    -3.91e-07  4.87e-06  1.41e-03  6.57e-05     5.9
   46    -2857.3733296120703926    -5.43e-07  1.12e-05  3.33e-03  8.96e-05     6.2
   47    -2857.3733309165204446    -1.30e-06  3.84e-05  1.15e-02  2.07e-04     6.8
               *** Scaled step length from 10.134154 to 0.200000 ***
   48    -2857.3733363914975598    -5.47e-06  1.65e-04  4.68e-02  5.32e-04     7.6
               *** Restarting incremental Fock matrix formation ***
   49    -2857.3733431998111882    -6.81e-06  7.28e-05  1.99e-02  1.86e-03    11.5
   50    -2857.3733518307694794    -8.63e-06  4.47e-05  1.21e-02  1.26e-03     8.2
               *** Scaled step length from 14.274345 to 0.200000 ***

       ******************************************************************************
       ***                                                                        ***
       ***                               Auto-TRAH                                ***
       ***                               ---------                                ***
       *** the maximum gradient error decreased on average only by a factor   0.6 ***
       *** during the last  10 iterations                                         ***
       ***                                                                        ***
       ***               Leaving SCF to start the TRAH-SCF procedure              ***
       ***                                                                        ***
       ******************************************************************************

 --------------------------------------------------------------------------------------------
   Iter.        energy            ||Error||_2        Shift      TRadius  Mac/Mic        Rej.
 --------------------------------------------------------------------------------------------
    0      -2857.373371062044     9.158212e-03                     0.400 (TRAH MAcro)   No
    0     dE    -1.900749e-04     1.355728e-02    -1.8989e-04      0.031 (TRAH MIcro)
    0     dE    -3.668010e-04     1.191909e-02    -3.6519e-04      0.066 (TRAH MIcro)
    0     dE    -4.591362e-04     7.197447e-03    -4.5557e-04      0.088 (TRAH MIcro)
    0     dE    -5.382949e-04     9.822393e-03    -5.3179e-04      0.111 (TRAH MIcro)
    0     dE    -6.265778e-04     1.048572e-02    -6.1441e-04      0.141 (TRAH MIcro)
    0     dE    -7.471690e-04     8.987312e-03    -7.2163e-04      0.188 (TRAH MIcro)
    0     dE    -8.281919e-04     9.200638e-03    -7.8935e-04      0.222 (TRAH MIcro)
    0     dE    -9.491497e-04     9.335063e-03    -8.8312e-04      0.273 (TRAH MIcro)
    0     dE    -1.053561e-03     9.384071e-03    -9.5704e-04      0.318 (TRAH MIcro)
    0     dE    -1.184173e-03     8.338719e-03    -1.0408e-03      0.371 (TRAH MIcro)
    0     dE    -1.282603e-03     8.067327e-03    -1.2886e-03      0.400 (TRAH MIcro)
    0     dE    -1.375632e-03     8.419468e-03    -2.0563e-03      0.400 (TRAH MIcro)
    0     dE    -1.445750e-03     6.680275e-03    -2.6552e-03      0.400 (TRAH MIcro)
    0     dE    -1.481923e-03     4.917989e-03    -2.9738e-03      0.400 (TRAH MIcro)
    0     dE    -1.512608e-03     5.069671e-03    -3.2543e-03      0.400 (TRAH MIcro)
    0     dE    -1.498066e-03     5.312543e-03    -3.7123e-03      0.384 (TRAH MIcro)
    0     dE    -1.570636e-03     4.099893e-03    -3.8131e-03      0.400 (TRAH MIcro)
    0     dE    -1.581228e-03     2.041913e-03    -3.9196e-03      0.400 (TRAH MIcro)
    0     dE    -1.584737e-03     1.516340e-03    -3.9557e-03      0.400 (TRAH MIcro)
    0     dE    -1.587179e-03     1.124419e-03    -3.9815e-03      0.400 (TRAH MIcro)
    0     dE    -1.588734e-03     1.057570e-03    -3.9982e-03      0.400 (TRAH MIcro)
    0     dE    -1.590223e-03     9.936134e-04    -4.0143e-03      0.400 (TRAH MIcro)
    0     dE    -1.591033e-03     5.477898e-04    -4.0231e-03      0.400 (TRAH MIcro)
    1      -2857.374765535433     1.372303e-02                     0.480 (TRAH MAcro)   No
    1     dE    -6.353096e-05     3.444631e-03    -6.3524e-05      0.011 (TRAH MIcro)
    1     dE    -7.600376e-05     4.848870e-03    -7.5982e-05      0.017 (TRAH MIcro)
    1     dE    -1.267275e-04     7.903636e-03    -1.2636e-04      0.054 (TRAH MIcro)
    1     dE    -1.669622e-04     7.183563e-03    -1.6574e-04      0.086 (TRAH MIcro)
    1     dE    -2.143064e-04     6.024805e-03    -2.1107e-04      0.124 (TRAH MIcro)
    1     dE    -2.531969e-04     6.958798e-03    -2.4719e-04      0.156 (TRAH MIcro)
    1     dE    -3.042203e-04     5.514718e-03    -2.9262e-04      0.199 (TRAH MIcro)
    1     dE    -3.421633e-04     4.753429e-03    -3.2474e-04      0.232 (TRAH MIcro)
    1     dE    -3.669825e-04     3.940400e-03    -3.4493e-04      0.253 (TRAH MIcro)
    1     dE    -3.848845e-04     2.578464e-03    -3.5909e-04      0.268 (TRAH MIcro)
    1     dE    -3.925376e-04     2.171280e-03    -3.6506e-04      0.274 (TRAH MIcro)
    1     dE    -3.981098e-04     1.716613e-03    -3.6937e-04      0.279 (TRAH MIcro)
    1     dE    -4.030744e-04     1.962029e-03    -3.7315e-04      0.283 (TRAH MIcro)
    1     dE    -4.076683e-04     1.708262e-03    -3.7657e-04      0.287 (TRAH MIcro)
    1     dE    -4.105040e-04     9.301545e-04    -3.7864e-04      0.290 (TRAH MIcro)
    2      -2857.375152498957     7.494618e-03                     0.576 (TRAH MAcro)   No
    2     dE    -1.862095e-05     1.900783e-03    -1.8620e-05      0.006 (TRAH MIcro)
    2     dE    -2.062647e-05     1.581228e-03    -2.0625e-05      0.007 (TRAH MIcro)
    2     dE    -2.355691e-05     1.577282e-03    -2.3554e-05      0.011 (TRAH MIcro)
    2     dE    -2.515520e-05     1.377103e-03    -2.5150e-05      0.015 (TRAH MIcro)
    2     dE    -2.640854e-05     1.010509e-03    -2.6401e-05      0.017 (TRAH MIcro)
    2     dE    -2.719674e-05     7.820016e-04    -2.7187e-05      0.019 (TRAH MIcro)
    2     dE    -2.755075e-05     4.715547e-04    -2.7540e-05      0.020 (TRAH MIcro)
    3      -2857.375180007834     4.715554e-04                     0.691 (TRAH MAcro)   No
    3     dE    -1.286200e-07     2.723280e-04    -1.2862e-07      0.000 (TRAH MIcro)
    3     dE    -3.038701e-07     5.235112e-04    -3.0387e-07      0.002 (TRAH MIcro)
    3     dE    -6.298227e-07     7.705098e-04    -6.2981e-07      0.004 (TRAH MIcro)
    3     dE    -1.192567e-06     7.218185e-04    -1.1925e-06      0.009 (TRAH MIcro)
    3     dE    -1.836841e-06     7.205841e-04    -1.8364e-06      0.015 (TRAH MIcro)
    3     dE    -2.210364e-06     6.373344e-04    -2.2096e-06      0.019 (TRAH MIcro)
    3     dE    -2.682670e-06     6.095128e-04    -2.6812e-06      0.023 (TRAH MIcro)
    3     dE    -3.187984e-06     6.791734e-04    -3.1854e-06      0.029 (TRAH MIcro)
    3     dE    -3.511299e-06     3.805741e-04    -3.5077e-06      0.032 (TRAH MIcro)
    3     dE    -3.645942e-06     2.881910e-04    -3.6419e-06      0.033 (TRAH MIcro)
    3     dE    -3.755655e-06     2.686579e-04    -3.7511e-06      0.035 (TRAH MIcro)
    3     dE    -3.807084e-06     1.467777e-04    -3.8024e-06      0.035 (TRAH MIcro)
    3     dE    -3.831718e-06     1.272287e-04    -3.8269e-06      0.036 (TRAH MIcro)
    3     dE    -3.853498e-06     1.023088e-04    -3.8486e-06      0.036 (TRAH MIcro)
    3     dE    -3.860318e-06     6.290159e-05    -3.8554e-06      0.036 (TRAH MIcro)
    3     dE    -3.863963e-06     4.014315e-05    -3.8590e-06      0.036 (TRAH MIcro)
    4      -2857.375183375648     1.632927e-04                     0.829 (TRAH MAcro)   No
    4     dE    -2.356558e-08     1.199420e-04    -2.3566e-08      0.000 (TRAH MIcro)
    4     dE    -3.516390e-08     1.429918e-04    -3.5164e-08      0.001 (TRAH MIcro)
    4     dE    -5.515723e-08     1.062801e-04    -5.5157e-08      0.001 (TRAH MIcro)
    4     dE    -6.454248e-08     9.112024e-05    -6.4542e-08      0.001 (TRAH MIcro)
    4     dE    -7.323310e-08     9.346677e-05    -7.3233e-08      0.002 (TRAH MIcro)
    4     dE    -8.052181e-08     8.291985e-05    -8.0522e-08      0.002 (TRAH MIcro)
    4     dE    -8.543526e-08     6.404852e-05    -8.5435e-08      0.002 (TRAH MIcro)
    4     dE    -9.023820e-08     6.719106e-05    -9.0238e-08      0.002 (TRAH MIcro)
    4     dE    -9.481207e-08     6.932391e-05    -9.4811e-08      0.003 (TRAH MIcro)
    4     dE    -9.909790e-08     4.779022e-05    -9.9097e-08      0.003 (TRAH MIcro)
    4     dE    -1.017947e-07     4.607916e-05    -1.0179e-07      0.003 (TRAH MIcro)
    4     dE    -1.055812e-07     5.486480e-05    -1.0558e-07      0.003 (TRAH MIcro)
    4     dE    -1.090706e-07     5.239165e-05    -1.0907e-07      0.003 (TRAH MIcro)
    4     dE    -1.110732e-07     4.002695e-05    -1.1107e-07      0.004 (TRAH MIcro)
    4     dE    -1.123937e-07     2.654120e-05    -1.1239e-07      0.004 (TRAH MIcro)
    4     dE    -1.133796e-07     3.410622e-05    -1.1338e-07      0.004 (TRAH MIcro)
    4     dE    -1.152376e-07     4.029755e-05    -1.1524e-07      0.004 (TRAH MIcro)
    4     dE    -1.167072e-07     2.803991e-05    -1.1671e-07      0.004 (TRAH MIcro)
    4     dE    -1.175405e-07     2.372912e-05    -1.1754e-07      0.004 (TRAH MIcro)
    4     dE    -1.181863e-07     2.047481e-05    -1.1818e-07      0.004 (TRAH MIcro)
    4     dE    -1.188899e-07     2.450465e-05    -1.1889e-07      0.004 (TRAH MIcro)
    4     dE    -1.197141e-07     2.228024e-05    -1.1971e-07      0.004 (TRAH MIcro)
    4     dE    -1.201507e-07     1.479261e-05    -1.2015e-07      0.005 (TRAH MIcro)
    5      -2857.375183474431     2.089470e-05                           (NR   MAcro)
    5     dE    -4.646202e-10     1.855377e-05                           (NR   MIcro)
    5     dE    -1.071978e-09     2.370488e-05                           (NR   MIcro)
    5     dE    -1.603832e-09     1.959048e-05                           (NR   MIcro)
    5     dE    -2.123198e-09     2.108622e-05                           (NR   MIcro)
    5     dE    -2.545597e-09     1.943206e-05                           (NR   MIcro)
    5     dE    -2.947072e-09     1.725691e-05                           (NR   MIcro)
    5     dE    -3.260692e-09     1.895751e-05                           (NR   MIcro)
    5     dE    -3.588898e-09     1.859870e-05                           (NR   MIcro)
    5     dE    -3.935700e-09     1.592041e-05                           (NR   MIcro)
    5     dE    -4.218323e-09     1.426024e-05                           (NR   MIcro)
    5     dE    -4.419719e-09     1.150460e-05                           (NR   MIcro)
    5     dE    -4.567596e-09     9.938224e-06                           (NR   MIcro)
    5     dE    -4.685469e-09     1.040871e-05                           (NR   MIcro)
    5     dE    -4.777884e-09     7.590329e-06                           (NR   MIcro)
    5     dE    -4.834416e-09     6.908345e-06                           (NR   MIcro)
    5     dE    -4.925702e-09     1.004005e-05                           (NR   MIcro)
    5     dE    -5.027232e-09     9.052445e-06                           (NR   MIcro)
    5     dE    -5.097602e-09     6.602652e-06                           (NR   MIcro)
    5     dE    -5.139105e-09     5.807174e-06                           (NR   MIcro)
    5     dE    -5.164553e-09     4.410547e-06                           (NR   MIcro)
    5     dE    -5.188203e-09     4.265565e-06                           (NR   MIcro)
    5     dE    -5.207914e-09     3.717096e-06                           (NR   MIcro)
    5     dE    -5.218066e-09     2.341908e-06                           (NR   MIcro)
    5     dE    -5.223241e-09     1.816811e-06                           (NR   MIcro)
    6      -2857.375183478696     3.823062e-06                           (NR   MAcro)

               *****************************************************
               *                     SUCCESS                       *
               *           SCF CONVERGED AFTER 165 CYCLES          *
               *****************************************************

 done (   15.310 sec)
Old exchange energy                            :    -55.594390906 Eh
New exchange energy                            :    -55.594397771 Eh
Exchange energy change after final integration :     -0.000006865 Eh
Total energy after final integration           :  -2857.375190344 Eh
             **** ENERGY FILE WAS UPDATED (XAKDOE01-S6.en.tmp) ****

----------------
TOTAL SCF ENERGY
----------------

Total Energy       :      -2857.37519034354955 Eh          -77753.13182 eV

Components:
Nuclear Repulsion  :       2599.32307388357322 Eh           70731.17674 eV
Electronic Energy  :      -5456.69825736226994 Eh         -148484.30838 eV
One Electron Energy:      -9100.85712066143242 Eh         -247646.91238 eV
Two Electron Energy:       3644.15886329916248 Eh           99162.60400 eV

Virial components:
Potential Energy   :      -5711.93900835076238 Eh         -155429.76231 eV
Kinetic Energy     :       2854.56381800721283 Eh           77676.63049 eV
Virial Ratio       :          2.00098486932350

DFT components:
N(Alpha)           :      100.000016803203 electrons
N(Beta)            :       99.000017466447 electrons
N(Total)           :      199.000034269650 electrons
E(X)               :     -166.302018198469 Eh       
E(C)               :       -7.124392311793 Eh       
E(XC)              :     -173.426410510262 Eh       

---------------
SCF CONVERGENCE
---------------

  Last Energy change         ...   -4.2646e-09  Tolerance :   1.0000e-08
  Last MAX-Density change    ...    4.0368e-02  Tolerance :   1.0000e-07
[...]
 59:   1013.77   0.001223    6.18  0.000376  ( 0.011613 -0.000425 -0.015537)
 60:   1014.56   0.000078    0.40  0.000024  (-0.002724 -0.002249  0.003412)
 61:   1026.41   0.000399    2.02  0.000121  (-0.006884  0.000241  0.008592)
 62:   1026.92   0.000024    0.12  0.000007  ( 0.001472  0.001577 -0.001632)
 63:   1042.56   0.000100    0.50  0.000030  (-0.003385 -0.000090 -0.004289)
 64:   1047.65   0.000043    0.22  0.000013  (-0.000144  0.003574 -0.000262)
 65:   1059.20   0.024376  123.19  0.007182  ( 0.054466  0.000432  0.064923)
 66:   1060.72   0.000287    1.45  0.000084  (-0.002289  0.008454 -0.002783)
 67:   1087.55   0.000084    0.42  0.000024  ( 0.000012  0.004903  0.000003)
 68:   1087.95   0.000084    0.42  0.000024  ( 0.003385 -0.000066  0.003552)
 69:   1136.43   0.000132    0.67  0.000036  ( 0.003267 -0.000045  0.005048)
 70:   1137.75   0.000009    0.05  0.000002  ( 0.000124  0.001561  0.000128)
 71:   1178.21   0.001234    6.23  0.000327  (-0.010029  0.000708  0.015021)
 72:   1178.33   0.000708    3.58  0.000187  ( 0.000541  0.013662 -0.000730)
 73:   1234.46   0.011305   57.13  0.002858  ( 0.027343  0.000267  0.045937)
 74:   1235.22   0.000300    1.52  0.000076  ( 0.000719 -0.008589  0.001210)
 75:   1261.88   0.000774    3.91  0.000191  ( 0.007123  0.000442  0.011849)
 76:   1262.40   0.000808    4.08  0.000200  ( 0.007444 -0.000548  0.012002)
 77:   1284.56   0.001923    9.72  0.000467  (-0.005965 -0.000143  0.020773)
 78:   1286.26   0.000024    0.12  0.000006  ( 0.000299 -0.001441 -0.001896)
 79:   1315.16   0.000004    0.02  0.000001  ( 0.000036 -0.000969  0.000050)
 80:   1315.44   0.000037    0.19  0.000009  ( 0.000711  0.000010  0.002886)
 81:   1344.77   0.000105    0.53  0.000024  (-0.000183 -0.004830  0.001022)
 82:   1346.45   0.002521   12.74  0.000584  ( 0.003062 -0.000283 -0.023976)
 83:   1441.05   0.005568   28.14  0.001206  (-0.016640  0.003497  0.030276)
 84:   1441.62   0.001190    6.01  0.000258  (-0.006260 -0.009392  0.011409)
 85:   1485.04   0.005886   29.75  0.001237  (-0.008678  0.003612  0.033891)
 86:   1485.68   0.002000   10.11  0.000420  (-0.001146 -0.019325  0.006733)
 87:   1487.71   0.006639   33.55  0.001393  ( 0.020828  0.000949  0.030950)
 88:   1488.91   0.001075    5.43  0.000225  ( 0.000766 -0.014952  0.001051)
 89:   1526.21   0.000506    2.56  0.000103  ( 0.000690  0.010145  0.000161)
 90:   1526.75   0.007758   39.21  0.001586  ( 0.038896 -0.000240  0.008531)
 91:   1637.30   0.000662    3.35  0.000126  (-0.000148  0.011230  0.000264)
 92:   1637.96   0.001978   10.00  0.000377  ( 0.010814  0.000163 -0.016121)
 93:   1671.14   0.002443   12.35  0.000456  (-0.012339  0.000066  0.017434)
 94:   1673.30   0.000242    1.22  0.000045  (-0.000095 -0.006711  0.000038)
 95:   2155.60   0.359779  1818.18  0.052085  ( 0.104951  0.000134 -0.202658)
 96:   2165.12   0.038086  192.47  0.005489  (-0.000094  0.074089  0.000497)
 97:   3040.58   0.004347   21.97  0.000446  (-0.010730  0.012697 -0.013030)
 98:   3041.09   0.004187   21.16  0.000430  ( 0.009716  0.013890  0.011929)
 99:   3092.63   0.002036   10.29  0.000205  (-0.001048 -0.007678  0.012058)
100:   3092.86   0.001954    9.87  0.000197  ( 0.000629 -0.011617 -0.007863)
101:   3200.80   0.000286    1.45  0.000028  (-0.004994 -0.000547  0.001633)
102:   3200.87   0.000087    0.44  0.000008  ( 0.001005 -0.002716 -0.000327)
103:   3213.29   0.001641    8.29  0.000159  ( 0.003905 -0.000432  0.011997)
104:   3213.31   0.000542    2.74  0.000053  (-0.000229 -0.007217 -0.000714)
105:   3218.64   0.000201    1.02  0.000019  ( 0.003152 -0.000088  0.003088)
106:   3218.69   0.000004    0.02  0.000000  ( 0.000337  0.000484  0.000278)
107:   3231.10   0.002432   12.29  0.000235  (-0.012884 -0.000135 -0.008298)
108:   3231.16   0.000056    0.28  0.000005  (-0.001723  0.001121 -0.001100)
109:   3845.61   0.012539   63.37  0.001018  ( 0.031762 -0.002869 -0.000706)
110:   3845.97   0.012607   63.71  0.001023  ( 0.031816  0.003161 -0.000828)

* The epsilon (eps) is given for a Dirac delta lineshape.
** The dipole moment derivative (T) already includes vibrational overlap.

The first frequency considered to be a vibration is 6
The total number of vibrations considered is 105


--------------------------
THERMOCHEMISTRY AT 298.15K
--------------------------

Temperature         ...   298.15 K
Pressure            ...     1.00 atm
Total Mass          ...   389.35 AMU
Quasi RRHO          ...     True
Cut-Off Frequency   ...     1.00 cm^-1

Throughout the following assumptions are being made:
  (1) The electronic state is orbitally nondegenerate
      but the spin degeneracy is treated
  (2) There are no thermally accessible electronically excited states
  (3) Hindered rotations indicated by low frequency modes are not
      treated as such but are treated as vibrations and this may
      cause some error
  (4) All equations used are the standard statistical mechanics
      equations for an ideal gas
  (5) All vibrations are strictly harmonic

freq.      17.19  E(vib)   ...       0.57 
freq.      22.79  E(vib)   ...       0.56 
freq.      23.85  E(vib)   ...       0.56 
freq.      30.88  E(vib)   ...       0.55 
freq.      40.30  E(vib)   ...       0.54 
freq.      42.28  E(vib)   ...       0.53 
freq.      71.95  E(vib)   ...       0.50 
freq.     103.60  E(vib)   ...       0.46 
freq.     126.56  E(vib)   ...       0.43 
freq.     132.14  E(vib)   ...       0.42 
freq.     152.88  E(vib)   ...       0.40 
freq.     165.44  E(vib)   ...       0.39 
freq.     168.39  E(vib)   ...       0.38 
freq.     169.57  E(vib)   ...       0.38 
freq.     186.47  E(vib)   ...       0.37 
freq.     211.30  E(vib)   ...       0.34 
freq.     221.29  E(vib)   ...       0.33 
freq.     221.86  E(vib)   ...       0.33 
freq.     242.25  E(vib)   ...       0.31 
freq.     248.40  E(vib)   ...       0.31 
freq.     296.29  E(vib)   ...       0.27 
freq.     320.79  E(vib)   ...       0.25 
freq.     333.37  E(vib)   ...       0.24 
freq.     345.92  E(vib)   ...       0.23 
freq.     371.36  E(vib)   ...       0.21 
freq.     424.95  E(vib)   ...       0.18 
freq.     426.27  E(vib)   ...       0.18 
freq.     447.05  E(vib)   ...       0.17 
freq.     454.22  E(vib)   ...       0.16 
freq.     490.22  E(vib)   ...       0.15 
freq.     495.24  E(vib)   ...       0.14 
freq.     498.82  E(vib)   ...       0.14 
freq.     500.92  E(vib)   ...       0.14 
freq.     505.63  E(vib)   ...       0.14 
freq.     507.22  E(vib)   ...       0.14 
freq.     523.47  E(vib)   ...       0.13 
freq.     523.68  E(vib)   ...       0.13 
freq.     639.78  E(vib)   ...       0.09 
freq.     644.00  E(vib)   ...       0.09 
freq.     654.42  E(vib)   ...       0.08 
freq.     657.32  E(vib)   ...       0.08 
freq.     755.65  E(vib)   ...       0.06 
freq.     757.04  E(vib)   ...       0.06 
freq.     779.77  E(vib)   ...       0.05 
freq.     781.60  E(vib)   ...       0.05 
freq.     839.22  E(vib)   ...       0.04 
freq.     840.28  E(vib)   ...       0.04 
freq.     869.80  E(vib)   ...       0.04 
freq.     870.83  E(vib)   ...       0.04 
freq.     909.49  E(vib)   ...       0.03 
freq.     909.77  E(vib)   ...       0.03 
freq.     996.42  E(vib)   ...       0.02 
freq.     996.82  E(vib)   ...       0.02 
freq.    1013.77  E(vib)   ...       0.02 
freq.    1014.56  E(vib)   ...       0.02 
freq.    1026.41  E(vib)   ...       0.02 
freq.    1026.92  E(vib)   ...       0.02 
freq.    1042.56  E(vib)   ...       0.02 
freq.    1047.65  E(vib)   ...       0.02 
freq.    1059.20  E(vib)   ...       0.02 
freq.    1060.72  E(vib)   ...       0.02 
freq.    1087.55  E(vib)   ...       0.02 
freq.    1087.95  E(vib)   ...       0.02 
freq.    1136.43  E(vib)   ...       0.01 
freq.    1137.75  E(vib)   ...       0.01 
freq.    1178.21  E(vib)   ...       0.01 
freq.    1178.33  E(vib)   ...       0.01 
freq.    1234.46  E(vib)   ...       0.01 
freq.    1235.22  E(vib)   ...       0.01 
freq.    1261.88  E(vib)   ...       0.01 
freq.    1262.40  E(vib)   ...       0.01 
freq.    1284.56  E(vib)   ...       0.01 
freq.    1286.26  E(vib)   ...       0.01 
freq.    1315.16  E(vib)   ...       0.01 
freq.    1315.44  E(vib)   ...       0.01 
freq.    1344.77  E(vib)   ...       0.01 
freq.    1346.45  E(vib)   ...       0.01 
freq.    1441.05  E(vib)   ...       0.00 
freq.    1441.62  E(vib)   ...       0.00 
freq.    1485.04  E(vib)   ...       0.00 
freq.    1485.68  E(vib)   ...       0.00 
freq.    1487.71  E(vib)   ...       0.00 
freq.    1488.91  E(vib)   ...       0.00 
freq.    1526.21  E(vib)   ...       0.00 
freq.    1526.75  E(vib)   ...       0.00 
freq.    1637.30  E(vib)   ...       0.00 
freq.    1637.96  E(vib)   ...       0.00 
freq.    1671.14  E(vib)   ...       0.00 
freq.    1673.30  E(vib)   ...       0.00 
freq.    2155.60  E(vib)   ...       0.00 
freq.    2165.12  E(vib)   ...       0.00 
freq.    3040.58  E(vib)   ...       0.00 
freq.    3041.09  E(vib)   ...       0.00 
freq.    3092.63  E(vib)   ...       0.00 
freq.    3092.86  E(vib)   ...       0.00 
freq.    3200.80  E(vib)   ...       0.00 
freq.    3200.87  E(vib)   ...       0.00 
freq.    3213.29  E(vib)   ...       0.00 
freq.    3213.31  E(vib)   ...       0.00 
freq.    3218.64  E(vib)   ...       0.00 
freq.    3218.69  E(vib)   ...       0.00 
freq.    3231.10  E(vib)   ...       0.00 
freq.    3231.16  E(vib)   ...       0.00 
freq.    3845.61  E(vib)   ...       0.00 
freq.    3845.97  E(vib)   ...       0.00 

------------
INNER ENERGY
------------

The inner energy is: U= E(el) + E(ZPE) + E(vib) + E(rot) + E(trans)
    E(el)   - is the total energy from the electronic structure calculation
              = E(kin-el) + E(nuc-el) + E(el-el) + E(nuc-nuc)
    E(ZPE)  - the the zero temperature vibrational energy from the frequency calculation
    E(vib)  - the the finite temperature correction to E(ZPE) due to population
              of excited vibrational states
    E(rot)  - is the rotational thermal energy
    E(trans)- is the translational thermal energy

Summary of contributions to the inner energy U:
Electronic energy                ...  -2857.66001631 Eh
Zero point energy                ...      0.27215361 Eh     170.78 kcal/mol
Thermal vibrational correction   ...      0.02044324 Eh      12.83 kcal/mol
Thermal rotational correction    ...      0.00141627 Eh       0.89 kcal/mol
Thermal translational correction ...      0.00141627 Eh       0.89 kcal/mol
-----------------------------------------------------------------------
Total thermal energy                  -2857.36458692 Eh


Summary of corrections to the electronic energy:
(perhaps to be used in another calculation)
Total thermal correction                  0.02327578 Eh      14.61 kcal/mol
Non-thermal (ZPE) correction              0.27215361 Eh     170.78 kcal/mol
-----------------------------------------------------------------------
Total correction                          0.29542939 Eh     185.38 kcal/mol


--------
ENTHALPY
--------

The enthalpy is H = U + kB*T
                kB is Boltzmann's constant
Total thermal energy              ...  -2857.36458692 Eh 
Thermal Enthalpy correction       ...      0.00094421 Eh       0.59 kcal/mol
-----------------------------------------------------------------------
Total Enthalpy                    ...  -2857.36364271 Eh


Note: Only C1 symmetry has been detected, increase convergence thresholds 
      if your molecule has a higher symmetry. Symmetry factor of 1.0 is   
      used for the rotational entropy correction. 
 

Note: Rotational entropy computed according to Herzberg 
Infrared and Raman Spectra, Chapter V,1, Van Nostrand Reinhold, 1945 
Point Group:  C1, Symmetry Number:   1  
Rotational constants in cm-1:     0.008063     0.006188     0.004488 

Vibrational entropy computed according to the QRRHO of S. Grimme
Chem.Eur.J. 2012 18 9955 using a reference frequency of 100.0 cm-1


-------
ENTROPY
-------

The entropy contributions are T*S = T*(S(el)+S(vib)+S(rot)+S(trans))
     S(el)   - electronic entropy
     S(vib)  - vibrational entropy
     S(rot)  - rotational entropy
     S(trans)- translational entropy
The entropies will be listed as multiplied by the temperature to get
units of energy

Electronic entropy                ...      0.00065446 Eh      0.41 kcal/mol
Vibrational entropy               ...      0.03726944 Eh     23.39 kcal/mol
Rotational entropy                ...      0.01673945 Eh     10.50 kcal/mol
Translational entropy             ...      0.02079640 Eh     13.05 kcal/mol
-----------------------------------------------------------------------
Final entropy term                ...      0.07545974 Eh     47.35 kcal/mol

In case the symmetry of your molecule has not been determined correctly
or in case you have a reason to use a different symmetry number we print 
out the resulting rotational entropy values for sn=1,12:

 non-linear molecules -----------------------------------
|  sn= 1 | S(rot)=       0.01673945 Eh     10.50 kcal/mol|
|  sn= 2 | S(rot)=       0.01608499 Eh     10.09 kcal/mol|
|  sn= 3 | S(rot)=       0.01570216 Eh      9.85 kcal/mol|
|  sn= 4 | S(rot)=       0.01543053 Eh      9.68 kcal/mol|
|  sn= 5 | S(rot)=       0.01521985 Eh      9.55 kcal/mol|
|  sn= 6 | S(rot)=       0.01504770 Eh      9.44 kcal/mol|
|  sn= 7 | S(rot)=       0.01490215 Eh      9.35 kcal/mol|
|  sn= 8 | S(rot)=       0.01477608 Eh      9.27 kcal/mol|
|  sn= 9 | S(rot)=       0.01466487 Eh      9.20 kcal/mol|
|  sn=10 | S(rot)=       0.01456539 Eh      9.14 kcal/mol|
|  sn=11 | S(rot)=       0.01447540 Eh      9.08 kcal/mol|
|  sn=12 | S(rot)=       0.01439324 Eh      9.03 kcal/mol|
 linear molecules ---------------------------------------
|  Dinfh | S(rot)=       0.01043043 Eh      6.55 kcal/mol|
|  Cinfv | S(rot)=       0.01108489 Eh      6.96 kcal/mol|
 --------------------------------------------------------


-------------------
GIBBS FREE ENERGY
-------------------

The Gibbs free energy is G = H - T*S

Total enthalpy                    ...  -2857.36364271 Eh 
Total entropy correction          ...     -0.07545974 Eh    -47.35 kcal/mol
-----------------------------------------------------------------------
Final Gibbs free energy         ...  -2857.43910245 Eh

For completeness - the Gibbs free energy minus the electronic energy
G-E(el)                           ...      0.22091386 Eh    138.63 kcal/mol


Maximum memory used throughout the entire PROP-calculation: 873.1 MB

--------------------------------
SUGGESTED CITATIONS FOR THIS RUN
--------------------------------

Below you find a list of papers that are relevant to this ORCA run
We neither can nor want to force you to cite these papers, but we appreciate if you do
You receive ORCA, which is the product of decades of hard work by many enthusiastic individuals, for free
The only thing we kindly ask in return is that you cite our papers,
We deeply appreciate it, if you show your appreciation for ORCA by not just citing the generic ORCA reference.

Please note that relegating all ORCA citations to the supporting information does *not* help us.
SI sections are not indexed - citations you put there will not count into any citation statistics
But we need these citations in order to attract the funding resources that allow us to do what we are doing

Therefore, if you are a happy ORCA user, please consider citing a few of the papers listed below in the main body of your paper

In addition to the list printed below, the program has created the file XAKDOE01-S6.bibtex that contains the list in bibtex format
You can import this file easily into all common literature databanks and citation aid programs


List of essential papers. We consider these as the minimum necessary citations

  1. Neese,F.
     Software update: the ORCA program system, version 5.0
     WIRES Comput. Molec. Sci., 2022 12(1)e1606
     doi.org/10.1002/wcms.1606

List of papers to cite with high priority. The work reported in these papers was absolutely
necessary for this run to complete.
Our perspective: the developers of density functionals and basis sets usually get cited in chemistry papers
Good! But without the algorithms to do something with them, the functionals or basis sets would not do anything.
Hence, in our opinion, the algorithm design and method developments papers are equally worthy of getting cited

  1. Neese,F.
     An improvement of the resolution of the identity approximation for the formation of the Coulomb matrix
     J. Comp. Chem., 2003 24(14)1740-1747
     doi.org/10.1002/jcc.10318
  2. Neese,F.; Wennmohs,F.; Hansen,A.; Becker,U.
     Efficient, approximate and parallel Hartree-Fock and hybrid DFT calculations. A 'chain-of-spheres' algorithm for the Hartree-Fock exchange
     Chem. Phys., 2009 356(1-3)98-109
     doi.org/10.1016/j.chemphys.2008.10.036
  3. Bykov,D.; Petrenko,T.; Izsak,R.; Kossmann,S.; Becker,U.; Valeev,E.; Neese,F.
     Efficient implementation of the analytic second derivatives of Hartree-Fock and hybrid DFT energies: a detailed analysis of different approximations
     Molec. Phys., 2015 113 1961-1977
     doi.org/10.1080/00268976.2015.1025114
  4. Helmich-Paris,B.; de Souza,B.; Neese,F.; Izsák,R.
     An improved chain of spheres for exchange algorithm
     J. Chem. Phys., 2021 155 104109
     doi.org/doi: 10.1063/5.0058766.
  5. Helmich-Paris,B.
     A trust-region augmented Hessian implementation for restricted and unrestricted Hartree–Fock and Kohn–Sham methods
     J. Chem. Phys., 2021 154 164104
     doi.org/10.1063/5.0040798
  6. Neese,F.
     The SHARK Integral Generation and Digestion System
     J. Comp. Chem., 2022  1-16
     doi.org/10.1002/jcc.26942

List of suggested additional citations. These are papers that are important in the 'surrounding' of 
of this run, or papers that preceded the highly important papers. If you like your results we are grateful for a citation.

  1. Izsak,R.; Neese,F.
     An overlap fitted chain of spheres exchange method
     J. Chem. Phys., 2011 135 144105
     doi.org/10.1063/1.3646921
  2. Izsak,R.; Hansen,A.; Neese,F.
     The resolution of identity and chain of spheres approximations for the LPNO-CCSD singles Fock term
     Molec. Phys., 2012 110 2413-2417
     doi.org/10.1080/00268976.2012.687466
  3. Neese,F.
     The ORCA program system
     WIRES Comput. Molec. Sci., 2012 2(1)73-78
     doi.org/10.1002/wcms.81
  4. Izsak,R.; Neese,F.; Klopper,W.
     Robust fitting techniques in the chain of spheres approximation to the Fock exchange: The role of the complementary space
     J. Chem. Phys., 2013 139 
     doi.org/10.1063/1.4819264
  5. Neese,F.
     Software update: the ORCA program system, version 4.0
     WIRES Comput. Molec. Sci., 2018 8(1)1-6
     doi.org/10.1002/wcms.1327
  6. Neese,F.; Wennmohs,F.; Becker,U.; Riplinger,C.
     The ORCA quantum chemistry program package
     J. Chem. Phys., 2020 152 Art. No. L224108
     doi.org/10.1063/5.0004608

List of optional additional citations

  1. Neese,F.
     Approximate second-order SCF convergence for spin unrestricted wavefunctions
     Chem. Phys. Lett., 2000 325(1-3)93-98
     doi.org/10.1016/s0009-2614(00)00662-x

Timings for individual modules:

Sum of individual times          ...    18673.177 sec (= 311.220 min)
Startup calculation              ...      372.972 sec (=   6.216 min)   2.0 %
SCF iterations                   ...     9949.033 sec (= 165.817 min)  53.3 %
Property integrals               ...     1707.595 sec (=  28.460 min)   9.1 %
SCF Response                     ...     4526.789 sec (=  75.446 min)  24.2 %
Property calculations            ...      479.769 sec (=   7.996 min)   2.6 %
SCF Gradient evaluation          ...     1636.049 sec (=  27.267 min)   8.8 %
Geometry relaxation              ...        0.970 sec (=   0.016 min)   0.0 %
                             ****ORCA TERMINATED NORMALLY****
TOTAL RUN TIME: 0 days 5 hours 12 minutes 23 seconds 418 msec
