
                                 *****************
                                 * O   R   C   A *
                                 *****************

                                            #,                                       
                                            ###                                      
                                            ####                                     
                                            #####                                    
                                            ######                                   
                                           ########,                                 
                                     ,,################,,,,,                         
                               ,,#################################,,                 
                          ,,##########################################,,             
                       ,#########################################, ''#####,          
                    ,#############################################,,   '####,        
                  ,##################################################,,,,####,       
                ,###########''''           ''''###############################       
              ,#####''   ,,,,##########,,,,          '''####'''          '####       
            ,##' ,,,,###########################,,,                        '##       
           ' ,,###''''                  '''############,,,                           
         ,,##''                                '''############,,,,        ,,,,,,###''
      ,#''                                            '''#######################'''  
     '                                                          ''''####''''         
             ,#######,   #######,   ,#######,      ##                                
            ,#'     '#,  ##    ##  ,#'     '#,    #''#        ,####,   ,####,        
            ##       ##  ##   ,#'  ##            #'  '#       #'       #'  '#        
            ##       ##  #######   ##           ,######,      #####,   #    #        
            '#,     ,#'  ##    ##  '#,     ,#' ,#      #,     #,   #   #,  ,#        
             '#######'   ##     ##  '#######'  #'      '#     '####' # '####'        



                #########################################################
                #                        -***-                          #
                #          Department of theory and spectroscopy        #
                #                                                       #
                #                      Frank Neese                      #
                #                                                       #
                #     Directorship, Architecture, Infrastructure        #
                #                    SHARK, DRIVERS                     #
                #        Core code/Algorithms in most modules           #
                #                                                       #
                #        Max Planck Institute fuer Kohlenforschung      #
                #                Kaiser Wilhelm Platz 1                 #
                #                 D-45470 Muelheim/Ruhr                 #
                #                      Germany                          #
                #                                                       #
                #                  All rights reserved                  #
                #                        -***-                          #
                #########################################################


                         Program Version 6.0.1  -  RELEASE   -


 With contributions from (in alphabetic order):
[Max-Planck-Institut fuer Kohlenforschung]                               
  Daniel Aravena         : Magnetic Suceptibility                        
  Michael Atanasov       : Ab Initio Ligand Field Theory (pilot matlab implementation)
  Alexander A. Auer      : GIAO ZORA, VPT2 properties, NMR spectrum      
  Ute Becker             : All parallelization in ORCA, NUMFREQ, NUMCALC 
  Giovanni Bistoni       : ED, misc. LED, open-shell LED, HFLD           
  Martin Brehm           : Molecular dynamics                            
  Dmytro Bykov           : pre 5.0 version of the SCF Hessian            
  Marcos Casanova-Páez   : Triplet and SCS-CIS(D). UHF-(DLPNO)-IP/EA/STEOM-CCSD. UHF-CVS-IP/STEOM-CCSD   
  Vijay G. Chilkuri      : MRCI spin determinant printing, contributions to CSF-ICE 
  Pauline Colinet        : FMM embedding                                 
  Dipayan Datta          : RHF DLPNO-CCSD density                        
  Achintya Kumar Dutta   : EOM-CC, STEOM-CC                              
  Nicolas Foglia         : Exact transition moments, OPA infrastructure, MCD improvements    
  Dmitry Ganyushin       : Spin-Orbit,Spin-Spin,Magnetic field MRCI      
  Miquel Garcia-Rates    : C-PCM and meta-GGA Hessian, CCSD/C-PCM, Gaussian charge scheme 
  Tiago L. C. Gouveia    : GS-ROHF, GS-ROCIS                             
  Yang Guo               : DLPNO-NEVPT2, F12-NEVPT2, CIM, IAO-localization        
  Andreas Hansen         : Spin unrestricted coupled pair/coupled cluster methods 
  Ingolf Harden          : AUTO-CI MPn and infrastructure                
  Benjamin Helmich-Paris : MC-RPA, TRAH-(SCF,CASSCF), AVAS, COSX integrals, SCF dyn. polar. 
  Lee Huntington         : MR-EOM, pCC                                   
  Robert Izsak           : Overlap fitted RIJCOSX, COSX-SCS-MP3, EOM     
  Riya Kayal             : Wick's Theorem for AUTO-CI, AUTO-CI UHF-CCSDT 
  Emily Kempfer          : AUTO-CI, RHF CISDT and CCSDT                  
  Christian Kollmar      : KDIIS, OOCD, Brueckner-CCSD(T), CCSD density, CASPT2, CASPT2-K, improved NEVPT2 
  Axel Koslowski         : Symmetry handling                             
  Simone Kossmann        : meta-GGA functionals, TD-DFT gradient, OOMP2, (MP2 Hessian; deprecated post 5.0) 
  Lucas Lang             : DCDCAS                                        
  Marvin Lechner         : AUTO-CI (C++ implementation), FIC-MRCC        
  Spencer Leger          : CASSCF response                               
  Dagmar Lenk            : GEPOL surface, SMD, ORCA-2-JSON               
  Dimitrios Liakos       : Extrapolation schemes; Compound Job, initial MDCI parallelization 
  Dimitrios Manganas     : Further ROCIS development; embedding schemes. LFT, Crystal Embedding 
  Dimitrios Pantazis     : SARC Basis sets                               
  Anastasios Papadopoulos: AUTO-CI, single reference methods and gradients 
  Taras Petrenko         : pre 6.0 DFT Hessian and TD-DFT gradient, (ASA, deprecated), ECA, 1-Electron XAS/XES, NRVS 
  Peter Pinski           : DLPNO-MP2, DLPNO-MP2 Gradient                 
  Christoph Reimann      : Effective Core Potentials                     
  Marius Retegan         : Local ZFS, SOC                                
  Christoph Riplinger    : Optimizer, TS searches, QM/MM, DLPNO-CCSD(T), (RO)-DLPNO pert. Triples 
  Michael Roemelt        : Original ROCIS implementation                 
  Masaaki Saitow         : Open-shell DLPNO-CCSD energy and density      
  Barbara Sandhoefer     : DKH picture change effects                    
  Kantharuban Sivalingam : CASSCF convergence/infrastructure, NEVPT2 and variants, FIC-MRCI 
  Bernardo de Souza      : ESD, SOC TD-DFT                               
  Georgi L. Stoychev     : AutoAux, RI-MP2 NMR, DLPNO-MP2 response, X2C  
  Van Anh Tran           : RI-MP2 g-tensors                              
  Willem Van den Heuvel  : Paramagnetic NMR                              
  Zikuan Wang            : NOTCH, Electric field optimization            
  Frank Wennmohs         : Technical directorship and infrastructure     
  Hang Xu                : AUTO-CI-Response properties                   
                                                                         
[FACCTs GmbH]                                                            
  Markus Bursch, Miquel Garcia-Rates, Christoph Riplinger, Bernardo de Souza, Georgi L. Stoychev 
                                                                 
  APM, Basis sets (HGBS, AHGBS, def-TZVP (Ac-Lr), def2-XVPD (La-Lu)), CI-OPT, improved COSX, DLPNO-Multilevel,           
  DOCKER, DRACO, updates on ESD, GOAT, IRC, LR-CPCM, MBIS, meta-GGA TD-DFT gradient, ML-optimized integration grids, 
  MM, NACMEs, nearIR, NEB, NEB-TS, NL-DFT gradient (VV10), 2- and 3-layer-ONIOM, interface openCOSMO-RS, QMMM,   
  Crystal-QMMM, SF, symmetry and pop. for TD-DFT, r2SCAN hybrids, SOLVATOR                                   
                                                                         
[Other institutions]                                                     
  V. Asgeirsson          : NEB                                           
  Christoph Bannwarth    : sTDA-DFT, sTD-DFT, PBEh-3c, B97-3c, D3        
  Sebastian Ehlert       : rSCAN, r2SCAN, r2SCAN-3c, D4, dhf basis sets  
  Marvin Friede          : D4 for Fr, Ra, Ac-Lr                          
  Lars Goerigk           : TD-DFT with DH, B97 family of functionals     
  Stefan Grimme          : VdW corrections, initial TS optimization, DFT functionals, gCP, sTDA/sTD-DF 
  Waldemar Hujo          : DFT-NL                                        
  H. Jonsson             : NEB                                           
  Holger Kruse           : gCP                                           
  Marcel Mueller         : wB97X-3c, vDZP basis set                      
  Hagen Neugebauer       : wr2SCAN                                       
  Tobias Risthaus        : range-separated hybrid DFT                    
  Lukas Wittmann         : regularized MP2, r2SCAN double-hybrids, wr2SCAN        
                                                                         
We gratefully acknowledge several colleagues who have allowed us to      
interface, adapt or use parts of their codes:                            
  Ed Valeev, F. Pavosevic, A. Kumar             : LibInt (2-el integral package), F12 methods 
  Garnet Chan, S. Sharma, J. Yang, R. Olivares  : DMRG                   
  Ulf Ekstrom                                   : XCFun DFT Library      
  Mihaly Kallay                                 : mrcc  (arbitrary order and MRCC methods)
  Frank Weinhold                                : gennbo (NPA and NBO analysis)           
  Simon Mueller                                 : openCOSMO-RS                            
  Christopher J. Cramer and Donald G. Truhlar   : smd solvation model                     
  S Lehtola, MJT Oliveira, MAL Marques          : LibXC Library                           
  Liviu Ungur et al                             : ANISO software                          


 Your calculation uses the libint2 library for the computation of 2-el integrals
 For citations please refer to: http://libint.valeyev.net

 Your ORCA version has been built with support for libXC version: 6.2.2
 For citations please refer to: https://libxc.gitlab.io

 This ORCA versions uses:
   CBLAS   interface :  Fast vector & matrix operations
   LAPACKE interface :  Fast linear algebra routines
   SCALAPACK package :  Parallel linear algebra routines
   Shared memory     :  Shared parallel matrices
   BLAS/LAPACK       :  OpenBLAS 0.3.27  USE64BITINT DYNAMIC_ARCH NO_AFFINITY Cooperlake SINGLE_THREADED
        Core in use  :  Cooperlake
   Copyright (c) 2011-2014, The OpenBLAS Project


NOTE: MaxCore=3600 MB was set to SCF,MP2,MDCI,CIPSI,MRCI and CIS
      => If you want to overwrite this, your respective input block should be placed after the MaxCore statement
Warning: RI is on but no J-basis has been assigned. Assigning Def2/J (nothing to worry about!)
================================================================================

----- Orbital basis set information -----
Your calculation utilizes the basis: def2-TZVP
   F. Weigend and R. Ahlrichs, Phys. Chem. Chem. Phys. 7, 3297 (2005).

----- AuxJ basis set information -----
Your calculation utilizes the auxiliary basis: def2/J
   F. Weigend, Phys. Chem. Chem. Phys. 8, 1057 (2006).

================================================================================
                                        WARNINGS
                       Please study these warnings very carefully!
================================================================================


WARNING: your system is open-shell and RHF/RKS was chosen
  ===> : WILL SWITCH to UHF/UKS


WARNING: Geometry Optimization
  ===> : Switching off AutoStart
         For restart on a previous wavefunction, please use MOREAD

================================================================================
                                       INPUT FILE
================================================================================
NAME = AXUMEL-S2.inp
|  1> ! PBE0 def2-TZVP  Opt Freq DEFGRID3
|  2> 
|  3> %maxcore 3600
|  4> 
|  5> %pal
|  6>     nprocs 16
|  7> end
|  8> 
|  9> *xyz 0 4
| 10> Ni 2.2688 4.8149 1.8847
| 11> Ni 1.9616 7.9656 2.0022
| 12> Mn 0.4848 6.1874 3.1833
| 13> S 1.0121 6.3185 0.9619
| 14> S 2.7869 6.409 3.2508
| 15> O -1.2712 3.8497 2.9711
| 16> O 0.4457 6.0539 6.1297
| 17> O -1.7907 8.0429 3.1422
| 18> C 1.6734 2.9217 1.1719
| 19> C 2.1599 2.7451 2.4625
| 20> C 3.472 3.1986 2.4857
| 21> C 3.8407 3.5889 1.2002
| 22> C 2.7316 3.454 0.3947
| 23> C 1.4919 9.9092 2.7691
| 24> C 0.9803 9.7695 1.5039
| 25> C 2.0918 9.5282 0.6295
| 26> C 3.245 9.53 1.3921
| 27> C 2.8651 9.7158 2.7195
| 28> C -0.5891 4.7678 3.0639
| 29> C 0.4732 6.1117 4.986
| 30> C -0.9005 7.3201 3.1666
| 31> H 0.8008 2.8142 0.8762
| 32> H 1.5762 2.4453 3.211
| 33> H 4.0057 3.2463 3.2002
| 34> H 4.5713 3.8682 1.0088
| 35> H 2.666 3.6258 -0.3673
| 36> H 0.9671 10.0341 3.5049
| 37> H 0.0329 9.7495 1.2579
| 38> H 2.0808 9.3701 -0.0735
| 39> H 4.0729 9.3701 1.1683
| 40> H 3.4211 9.7073 3.4439
| 41> *
| 42> 
| 43>                          ****END OF INPUT****
================================================================================

                       *****************************
                       * Geometry Optimization Run *
                       *****************************

Geometry optimization settings:
Update method            Update   .... BFGS
Choice of coordinates    CoordSys .... (2022) Redundant Internals
Initial Hessian          InHess   .... Almloef's Model
Max. no of cycles        MaxIter  .... 93

Convergence Tolerances:
Energy Change            TolE     ....  5.0000e-06 Eh
Max. Gradient            TolMAXG  ....  3.0000e-04 Eh/bohr
RMS Gradient             TolRMSG  ....  1.0000e-04 Eh/bohr
Max. Displacement        TolMAXD  ....  4.0000e-03 bohr
RMS Displacement         TolRMSD  ....  2.0000e-03 bohr
Strict Convergence                .... False

------------------------------------------------------------------------------
                        ORCA OPTIMIZATION COORDINATE SETUP
------------------------------------------------------------------------------

The optimization will be done in redundant internal coordinates (2022)
Making redundant internal coordinates   ...  (2022 redundants) done
Evaluating the initial hessian          ...  (Almloef) done
Evaluating the coordinates              ...  done
Calculating the B-matrix                .... done
Calculating the G-matrix                .... done
Diagonalizing the G-matrix              .... done
The first mode is                       ....  403
The number of degrees of freedom        ....   87

    -----------------------------------------------------------------
                    Redundant Internal Coordinates


    -----------------------------------------------------------------
         Definition                    Initial Value    Approx d2E/dq
    -----------------------------------------------------------------
      1. B(Ni  1,Ni  0)                  3.1678         0.093237   
      2. B(Mn  2,Ni  0)                  2.5986         0.754619   
      3. B(Mn  2,Ni  1)                  2.5958         0.762583   
      4. B(S   3,Ni  0)                  2.1660         0.985216   
      5. B(S   3,Mn  2)                  2.2869         0.631983   
      6. B(S   3,Ni  1)                  2.1672         0.981011   
      7. B(S   4,Ni  0)                  2.1624         0.998564   
      8. B(S   4,Mn  2)                  2.3137         0.572645   
      9. B(S   4,Ni  1)                  2.1594         1.009390   
     10. B(C   8,Ni  0)                  2.1087         0.450980   
     11. B(C   9,C   8)                  1.3905         0.623627   
     12. B(C   9,Ni  0)                  2.1517         0.385150   
     13. B(C  10,C   9)                  1.3885         0.628353   
     14. B(C  10,Ni  0)                  2.1027         0.461113   
     15. B(C  11,Ni  0)                  2.1077         0.452675   
     16. B(C  11,C  10)                  1.3931         0.617676   
     17. B(C  12,C  11)                  1.3774         0.654484   
     18. B(C  12,C   8)                  1.4167         0.566326   
     19. B(C  12,Ni  0)                  2.0703         0.519296   
     20. B(C  13,Ni  1)                  2.1416         0.399739   
     21. B(C  14,C  13)                  1.3719         0.667868   
     22. B(C  14,Ni  1)                  2.1131         0.443772   
     23. B(C  15,C  14)                  1.4347         0.530268   
     24. B(C  15,Ni  1)                  2.0840         0.493925   
     25. B(C  16,C  15)                  1.3825         0.642143   
     26. B(C  16,Ni  1)                  2.1135         0.443241   
     27. B(C  17,C  16)                  1.3931         0.617633   
     28. B(C  17,C  13)                  1.3876         0.630239   
     29. B(C  17,Ni  1)                  2.0962         0.472253   
     30. B(C  18,O   5)                  1.1475         1.363805   
     31. B(C  18,Mn  2)                  1.7840         1.486638   
     32. B(C  19,O   6)                  1.1455         1.373966   
     33. B(C  19,Mn  2)                  1.8043         1.379852   
     34. B(C  20,O   7)                  1.1469         1.366622   
     35. B(C  20,Mn  2)                  1.7895         1.457040   
     36. B(H  21,C   8)                  0.9276         0.653937   
     37. B(H  22,C   9)                  0.9954         0.509727   
     38. B(H  23,C  10)                  0.8931         0.742284   
     39. B(H  24,C  11)                  0.8052         1.025020   
     40. B(H  25,C  12)                  0.7839         1.108724   
     41. B(H  26,C  13)                  0.9124         0.691548   
     42. B(H  27,C  14)                  0.9790         0.541355   
     43. B(H  28,C  15)                  0.7206         1.398651   
     44. B(H  29,C  16)                  0.8724         0.800937   
     45. B(H  30,C  17)                  0.9132         0.689399   
     46. A(Ni  1,Ni  0,C  11)          131.5211         0.399709   
     47. A(C   9,Ni  0,C  12)           64.6758         0.486000   
     48. A(Mn  2,Ni  0,S   3)           56.4923         0.713792   
     49. A(C   8,Ni  0,C  12)           39.6195         0.500434   
     50. A(Ni  1,Ni  0,C  10)          144.0389         0.401011   
     51. A(S   3,Ni  0,C   8)          108.3848         0.588619   
     52. A(Ni  1,Ni  0,S   3)           43.0394         0.478215   
     53. A(Mn  2,Ni  0,C   9)          109.8236         0.569863   
     54. A(Ni  1,Ni  0,C  12)          134.5997         0.409516   
     55. A(Ni  1,Ni  0,S   4)           42.8264         0.479402   
     56. A(Ni  1,Ni  0,Mn  2)           52.3799         0.477223   
     57. A(C  10,Ni  0,C  11)           38.6435         0.489856   
     58. A(S   3,Ni  0,S   4)           84.0545         0.717298   
     59. A(S   4,Ni  0,C  11)          117.0837         0.590569   
     60. A(S   3,Ni  0,C  11)          134.2761         0.589044   
     61. A(S   4,Ni  0,C  12)          152.3374         0.606401   
     62. A(S   3,Ni  0,C   9)          138.8330         0.571091   
     63. A(C   8,Ni  0,C   9)           38.0812         0.473526   
     64. A(S   3,Ni  0,C  10)          170.8817         0.591139   
     65. A(S   3,Ni  0,C  12)          106.2235         0.604827   
     66. A(C   9,Ni  0,C  10)           38.0738         0.475465   
     67. A(C   8,Ni  0,C  10)           64.4098         0.489516   
     68. A(S   4,Ni  0,C   8)          160.5704         0.590144   
     69. A(Mn  2,Ni  0,C  12)          149.3493         0.603513   
     70. A(C   9,Ni  0,C  11)           64.2415         0.473852   
     71. A(Mn  2,Ni  0,C  10)          130.9953         0.589859   
     72. A(S   4,Ni  0,C  10)          104.4182         0.592670   
     73. A(C  10,Ni  0,C  12)           64.6919         0.502509   
     74. A(Ni  1,Ni  0,C   9)          160.3685         0.388554   
     75. A(S   4,Ni  0,C   9)          123.4784         0.572562   
     76. A(Mn  2,Ni  0,C   8)          116.6964         0.587346   
     77. A(C   8,Ni  0,C  11)           65.0756         0.487845   
     78. A(Mn  2,Ni  0,S   4)           57.2764         0.715698   
     79. A(Ni  1,Ni  0,C   8)          151.4130         0.399446   
     80. A(C  11,Ni  0,C  12)           38.4838         0.500784   
     81. A(Mn  2,Ni  0,C  11)          168.9635         0.587770   
     82. A(Mn  2,Ni  1,S   3)           56.5308         0.714672   
     83. A(S   3,Ni  1,C  14)          109.3991         0.586319   
     84. A(S   3,Ni  1,C  15)          106.3233         0.598519   
     85. A(C  16,Ni  1,C  17)           38.6489         0.490111   
     86. A(Ni  0,Ni  1,S   3)           43.0107         0.477838   
     87. A(C  14,Ni  1,C  16)           65.2938         0.484504   
     88. A(C  13,Ni  1,C  15)           64.4741         0.484841   
     89. A(Ni  0,Ni  1,C  17)          143.2567         0.402701   
     90. A(Mn  2,Ni  1,C  14)          115.3338         0.586714   
     91. A(C  15,Ni  1,C  16)           38.4540         0.494206   
     92. A(S   3,Ni  1,S   4)           84.0966         0.718224   
     93. A(C  13,Ni  1,C  16)           64.2005         0.475259   
     94. A(Mn  2,Ni  1,C  17)          131.4135         0.593771   
     95. A(S   3,Ni  1,C  17)          170.9930         0.593371   
     96. A(C  13,Ni  1,C  17)           38.2087         0.480842   
     97. A(C  15,Ni  1,C  17)           64.6858         0.500062   
     98. A(S   4,Ni  1,C  16)          117.9308         0.589404   
     99. A(S   3,Ni  1,C  16)          133.6344         0.586184   
    100. A(Ni  0,Ni  1,C  16)          131.8063         0.398232   
    101. A(Mn  2,Ni  1,S   4)           57.3530         0.718723   
    102. A(Ni  0,Ni  1,S   4)           42.8986         0.480356   
    103. A(C  14,Ni  1,C  15)           39.9680         0.494315   
    104. A(S   4,Ni  1,C  15)          153.8287         0.601818   
    105. A(S   4,Ni  1,C  13)          122.0709         0.577840   
    106. A(Mn  2,Ni  1,C  15)          148.0936         0.598923   
    107. A(S   4,Ni  1,C  17)          103.8436         0.596637   
    108. A(S   4,Ni  1,C  14)          158.3078         0.589540   
    109. A(Ni  0,Ni  1,C  13)          159.5872         0.391085   
    110. A(C  13,Ni  1,C  14)           37.6127         0.475364   
    111. A(Ni  0,Ni  1,C  14)          152.2930         0.398315   
    112. A(S   3,Ni  1,C  13)          139.9571         0.574695   
    113. A(Mn  2,Ni  1,C  13)          109.5114         0.575080   
    114. A(C  14,Ni  1,C  17)           64.4113         0.490220   
    115. A(Ni  0,Ni  1,C  15)          135.6655         0.405903   
    116. A(Ni  0,Ni  1,Mn  2)           52.4618         0.478146   
    117. A(Mn  2,Ni  1,C  16)          169.7079         0.586579   
    118. A(C  18,Mn  2,C  19)           91.6969         0.761382   
    119. A(S   4,Mn  2,C  19)           88.9266         0.658155   
    120. A(Ni  1,Mn  2,C  19)          119.1437         0.732413   
    121. A(Ni  0,Mn  2,C  19)          118.7856         0.730886   
    122. A(Ni  0,Mn  2,Ni  1)           75.1584         0.713682   
    123. A(S   4,Mn  2,C  18)          132.6166         0.667839   
    124. A(S   3,Mn  2,C  18)           96.8575         0.680901   
    125. A(Ni  1,Mn  2,C  18)          148.9946         0.743360   
    126. A(Ni  0,Mn  2,C  18)           87.6806         0.741807   
    127. A(C  18,Mn  2,C  20)           92.1238         0.769716   
    128. A(S   4,Mn  2,C  20)          135.2253         0.665210   
    129. A(Ni  0,Mn  2,S   4)           51.8366         0.641586   
    130. A(S   3,Mn  2,S   4)           78.0786         0.590030   
    131. A(Ni  1,Mn  2,S   4)           51.8001         0.642900   
    132. A(Ni  1,Mn  2,S   3)           52.2342         0.655400   
    133. A(Ni  0,Mn  2,S   3)           52.1617         0.654056   
    134. A(S   3,Mn  2,C  19)          167.0016         0.670999   
    135. A(Ni  1,Mn  2,C  20)           90.1470         0.740389   
    136. A(C  19,Mn  2,C  20)           91.7709         0.758328   
    137. A(S   3,Mn  2,C  20)           97.6512         0.678213   
    138. A(Ni  0,Mn  2,C  20)          149.4403         0.738843   
    139. A(Ni  1,S   3,Mn  2)           71.2351         0.654951   
    140. A(Ni  0,S   3,Mn  2)           71.3460         0.655499   
    141. A(Ni  0,S   3,Ni  1)           93.9499         0.714782   
    142. A(Ni  1,S   4,Mn  2)           70.8469         0.646045   
    143. A(Ni  0,S   4,Mn  2)           70.8870         0.644687   
    144. A(Ni  0,S   4,Ni  1)           94.2750         0.720755   
    145. A(Ni  0,C   8,C  12)           68.7292         0.452302   
    146. A(C  12,C   8,H  21)          124.8414         0.384938   
    147. A(C   9,C   8,H  21)          127.6104         0.391464   
    148. A(Ni  0,C   8,H  21)          118.5164         0.413614   
    149. A(Ni  0,C   8,C   9)           72.6326         0.460315   
    150. A(C   9,C   8,C  12)          107.1908         0.427513   
    151. A(Ni  0,C   9,C   8)           69.2862         0.447288   
    152. A(C   8,C   9,C  10)          107.7376         0.435570   
    153. A(Ni  0,C   9,C  10)           69.0513         0.447901   
    154. A(C  10,C   9,H  22)          129.7884         0.375370   
    155. A(C   8,C   9,H  22)          122.0739         0.374881   
    156. A(Ni  0,C   9,H  22)          121.4210         0.385052   
    157. A(C   9,C  10,C  11)          109.0378         0.434819   
    158. A(Ni  0,C  10,C  11)           70.8734         0.461378   
    159. A(Ni  0,C  10,C   9)           72.8749         0.462825   
    160. A(C  11,C  10,H  23)          124.4095         0.399590   
    161. A(C   9,C  10,H  23)          126.5507         0.400798   
    162. A(Ni  0,C  10,H  23)          121.9757         0.424744   
    163. A(Ni  0,C  11,C  10)           70.4831         0.459824   
    164. A(C  12,C  11,H  24)          128.7230         0.427534   
    165. A(C  10,C  11,H  24)          123.8230         0.423127   
    166. A(Ni  0,C  11,H  24)          123.5104         0.448680   
    167. A(C  10,C  11,C  12)          107.4026         0.438023   
    168. A(Ni  0,C  11,C  12)           69.2901         0.464715   
    169. A(C  11,C  12,H  25)          127.9093         0.433602   
    170. A(C   8,C  12,H  25)          123.5806         0.422501   
    171. A(Ni  0,C  12,H  25)          122.4680         0.466684   
    172. A(C   8,C  12,C  11)          108.5075         0.431233   
    173. A(Ni  0,C  12,C  11)           72.2261         0.476574   
    174. A(Ni  0,C  12,C   8)           71.6513         0.464088   
    175. A(C  14,C  13,C  17)          108.7771         0.441227   
    176. A(Ni  1,C  13,C  17)           69.1249         0.451179   
    177. A(C  17,C  13,H  26)          128.1066         0.396049   
    178. A(Ni  1,C  13,C  14)           70.0690         0.455964   
    179. A(C  14,C  13,H  26)          122.9021         0.400106   
    180. A(Ni  1,C  13,H  26)          122.6290         0.408896   
    181. A(C  13,C  14,C  15)          106.8761         0.427723   
    182. A(Ni  1,C  14,C  15)           68.9220         0.445630   
    183. A(Ni  1,C  14,C  13)           72.3183         0.464747   
    184. A(C  15,C  14,H  27)          126.3805         0.368358   
    185. A(C  13,C  14,H  27)          126.4911         0.383333   
    186. A(Ni  1,C  14,H  27)          119.4193         0.398893   
    187. A(C  14,C  15,C  16)          108.0487         0.424725   
    188. A(Ni  1,C  15,C  16)           71.9263         0.470557   
    189. A(Ni  1,C  15,C  14)           71.1100         0.454378   
    190. A(C  16,C  15,H  28)          123.4429         0.450644   
    191. A(C  14,C  15,H  28)          128.2897         0.435309   
    192. A(Ni  1,C  15,H  28)          118.4969         0.482586   
    193. A(C  15,C  16,C  17)          107.3543         0.436517   
    194. A(Ni  1,C  16,C  17)           70.0057         0.458055   
    195. A(Ni  1,C  16,C  15)           69.6196         0.461320   
    196. A(C  17,C  16,H  29)          121.8475         0.404978   
    197. A(C  15,C  16,H  29)          130.5288         0.407773   
    198. A(Ni  1,C  16,H  29)          120.9750         0.427531   
    199. A(C  13,C  17,C  16)          108.8143         0.435048   
    200. A(Ni  1,C  17,C  16)           71.3454         0.463390   
    201. A(Ni  1,C  17,C  13)           72.6664         0.465106   
    202. A(C  16,C  17,H  30)          126.0536         0.394433   
    203. A(C  13,C  17,H  30)          125.1308         0.395833   
    204. A(Ni  1,C  17,H  30)          121.7416         0.420963   
    205. L(Mn  2,C  18,O   5,Ni  0, 2) 180.5285         0.664868   
    206. L(Mn  2,C  18,O   5,Ni  0, 1) 179.1705         0.664868   
    207. L(Mn  2,C  19,O   6,S   4, 2) 180.4952         0.656186   
    208. L(Mn  2,C  19,O   6,S   4, 1) 181.0489         0.656186   
    209. L(Mn  2,C  20,O   7,Ni  1, 2) 179.1517         0.662521   
    210. L(Mn  2,C  20,O   7,Ni  1, 1) 179.8605         0.662521   
    211. D(Mn  2,Ni  1,Ni  0,C  12)    139.9444         0.001510   
    212. D(Mn  2,Ni  1,Ni  0,C  11)   -166.5863         0.001510   
    213. D(Mn  2,Ni  1,Ni  0,S   4)    -80.0656         0.001510   
    214. D(S   3,Ni  1,Ni  0,C   8)     -1.9340         0.001510   
    215. D(S   3,Ni  1,Ni  0,C   9)   -106.3098         0.001510   
    216. D(Mn  2,Ni  1,Ni  0,C  10)   -110.3708         0.001510   
    217. D(S   3,Ni  1,Ni  0,Mn  2)    -78.7029         0.001510   
    218. D(S   4,Ni  1,Ni  0,Mn  2)     80.0656         0.001510   
    219. D(S   3,Ni  1,Ni  0,C  11)    114.7108         0.001510   
    220. D(Mn  2,Ni  1,Ni  0,C   8)     76.7689         0.001510   
    221. D(S   3,Ni  1,Ni  0,C  10)    170.9263         0.001510   
    222. D(Mn  2,Ni  1,Ni  0,S   3)     78.7029         0.001510   
    223. D(S   3,Ni  1,Ni  0,C  12)     61.2415         0.001510   
    224. D(S   4,Ni  1,Ni  0,S   3)    158.7685         0.001510   
    225. D(S   3,Ni  1,Ni  0,S   4)   -158.7685         0.001510   
    226. D(Mn  2,Ni  1,Ni  0,C   9)    -27.6069         0.001510   
    227. D(S   3,Mn  2,Ni  0,C  11)    168.2526         0.001941   
    228. D(S   3,Mn  2,Ni  0,C  12)    -62.6126         0.001941   
    229. D(S   3,Mn  2,Ni  0,C   9)   -136.1400         0.001941   
    230. D(S   3,Mn  2,Ni  0,S   4)    106.1270         0.001941   
    231. D(S   3,Mn  2,Ni  1,C  15)     64.8882         0.001950   
    232. D(S   3,Mn  2,Ni  1,C  14)     97.3281         0.001950   
    233. D(Ni  1,Mn  2,Ni  0,C  11)    114.8665         0.001941   
    234. D(S   3,Mn  2,Ni  1,C  17)    174.6416         0.001950   
    235. D(S   3,Mn  2,Ni  0,C  10)   -173.4484         0.001941   
    236. D(S   3,Mn  2,Ni  1,Ni  0)    -53.3105         0.001950   
    237. D(Ni  1,Mn  2,Ni  0,C  10)    133.1655         0.001941   
    238. D(S   3,Mn  2,Ni  0,Ni  1)     53.3861         0.001941   
    239. D(Ni  1,Mn  2,Ni  0,C   9)    170.4739         0.001941   
    240. D(S   4,Mn  2,Ni  1,S   3)    106.0892         0.001950   
    241. D(Ni  0,Mn  2,Ni  1,S   4)    -52.7787         0.001950   
    242. D(Ni  0,Mn  2,Ni  1,S   3)     53.3105         0.001950   
    243. D(Ni  1,Mn  2,Ni  0,S   4)     52.7409         0.001941   
    244. D(S   4,Mn  2,Ni  0,C   8)    158.6832         0.001941   
    245. D(Ni  0,Mn  2,Ni  1,C  13)   -169.0098         0.001950   
    246. D(Ni  0,Mn  2,Ni  1,C  15)    118.1987         0.001950   
    247. D(Ni  0,Mn  2,Ni  1,C  16)   -118.2823         0.001950   
    248. D(Ni  0,Mn  2,Ni  1,C  14)    150.6386         0.001950   
    249. D(Ni  1,Mn  2,Ni  0,C  12)   -115.9987         0.001941   
    250. D(S   4,Mn  2,Ni  0,S   3)   -106.1270         0.001941   
    251. D(Ni  1,Mn  2,Ni  0,S   3)    -53.3861         0.001941   
    252. D(Ni  0,Mn  2,Ni  1,C  17)   -132.0479         0.001950   
    253. D(S   4,Mn  2,Ni  1,Ni  0)     52.7787         0.001950   
    254. D(S   4,Mn  2,Ni  1,C  13)   -116.2311         0.001950   
    255. D(S   3,Mn  2,Ni  1,C  16)   -171.5928         0.001950   
    256. D(S   3,Mn  2,Ni  0,C   8)    -95.1898         0.001941   
    257. D(Ni  1,Mn  2,Ni  0,C   8)   -148.5759         0.001941   
    258. D(S   3,Mn  2,Ni  1,C  13)    137.6797         0.001950   
    259. D(S   3,Mn  2,Ni  1,S   4)   -106.0892         0.001950   
    260. D(S   4,Mn  2,Ni  0,Ni  1)    -52.7409         0.001941   
    261. D(Ni  0,S   3,Ni  1,S   4)    -14.3487         0.003473   
    262. D(Ni  0,S   3,Ni  1,C  13)   -149.3128         0.003473   
    263. D(Mn  2,S   3,Ni  0,C   8)    110.3489         0.003489   
    264. D(Mn  2,S   3,Ni  0,Ni  1)    -68.6761         0.003489   
    265. D(Ni  1,S   3,Ni  0,C  12)   -139.4515         0.003489   
    266. D(Mn  2,S   3,Ni  0,S   4)    -54.3461         0.003489   
    267. D(Ni  1,S   3,Ni  0,C  11)   -108.2034         0.003489   
    268. D(Ni  1,S   3,Ni  0,C  10)   -144.2402         0.003489   
    269. D(Ni  1,S   3,Ni  0,S   4)     14.3299         0.003489   
    270. D(Ni  1,S   3,Ni  0,Mn  2)     68.6761         0.003489   
    271. D(Ni  0,S   3,Ni  1,Mn  2)    -68.7726         0.003473   
    272. D(Ni  1,S   3,Ni  0,C   9)    150.6690         0.003489   
    273. D(Ni  1,S   3,Mn  2,C  20)     84.2147         0.002253   
    274. D(Ni  1,S   3,Ni  0,C   8)    179.0250         0.003489   
    275. D(Ni  1,S   3,Mn  2,C  18)    177.2997         0.002253   
    276. D(Ni  1,S   3,Mn  2,Ni  0)   -101.0390         0.002253   
    277. D(Ni  0,S   3,Mn  2,C  19)     49.1508         0.002253   
    278. D(Ni  0,S   3,Mn  2,C  18)    -81.6612         0.002253   
    279. D(Ni  0,S   3,Mn  2,S   4)     50.5303         0.002253   
    280. D(Ni  0,S   3,Mn  2,C  20)   -174.7462         0.002253   
    281. D(Ni  0,S   3,Mn  2,Ni  1)    101.0390         0.002253   
    282. D(Mn  2,S   3,Ni  1,C  13)    -80.5402         0.003473   
    283. D(Ni  1,S   3,Mn  2,S   4)    -50.5087         0.002253   
    284. D(Ni  0,S   3,Ni  1,C  17)    137.8013         0.003473   
    285. D(Ni  0,S   3,Ni  1,C  16)    109.1590         0.003473   
    286. D(Mn  2,S   3,Ni  1,S   4)     54.4239         0.003473   
    287. D(Ni  0,S   3,Ni  1,C  15)    141.1400         0.003473   
    288. D(Ni  1,S   3,Mn  2,C  19)    -51.8883         0.002253   
    289. D(Ni  0,S   3,Ni  1,C  14)   -176.8932         0.003473   
    290. D(Mn  2,S   3,Ni  1,Ni  0)     68.7726         0.003473   
    291. D(Ni  1,S   4,Mn  2,S   3)     50.9231         0.002122   
    292. D(Ni  1,S   4,Mn  2,C  18)    139.2944         0.002122   
    293. D(Ni  1,S   4,Mn  2,C  19)   -129.3872         0.002122   
    294. D(Ni  0,S   4,Mn  2,C  20)   -139.7182         0.002122   
    295. D(Ni  0,S   4,Mn  2,C  19)    128.8492         0.002122   
    296. D(Mn  2,S   4,Ni  1,C  13)     93.8217         0.003586   
    297. D(Ni  0,S   4,Mn  2,S   3)    -50.8405         0.002122   
    298. D(Mn  2,S   4,Ni  1,S   3)    -53.6858         0.003586   
    299. D(Mn  2,S   4,Ni  1,Ni  0)    -68.0653         0.003586   
    300. D(Ni  0,S   4,Ni  1,C  17)   -161.3006         0.003586   
    301. D(Ni  0,S   4,Ni  1,C  16)   -122.5387         0.003586   
    302. D(Ni  0,S   4,Mn  2,C  18)     37.5308         0.002122   
    303. D(Ni  0,S   4,Ni  1,Mn  2)     68.0653         0.003586   
    304. D(Ni  0,S   4,Ni  1,C  13)    161.8871         0.003586   
    305. D(Ni  0,S   4,Ni  1,S   3)     14.3795         0.003586   
    306. D(Ni  0,S   4,Ni  1,C  15)   -101.1028         0.003586   
    307. D(Mn  2,S   4,Ni  0,C   8)    -77.5069         0.003543   
    308. D(Mn  2,S   4,Ni  0,S   3)     53.6423         0.003543   
    309. D(Mn  2,S   4,Ni  0,Ni  1)     68.0308         0.003543   
    310. D(Ni  0,S   4,Mn  2,Ni  1)   -101.7636         0.002122   
    311. D(Ni  0,S   4,Ni  1,C  14)    144.4304         0.003586   
    312. D(Ni  1,S   4,Ni  0,C  12)     99.5876         0.003543   
    313. D(Ni  1,S   4,Ni  0,C  11)    122.9258         0.003543   
    314. D(Ni  1,S   4,Ni  0,C   9)   -161.3744         0.003543   
    315. D(Ni  1,S   4,Mn  2,Ni  0)    101.7636         0.002122   
    316. D(Ni  1,S   4,Mn  2,C  20)    -37.9547         0.002122   
    317. D(Ni  1,S   4,Ni  0,C   8)   -145.5378         0.003543   
    318. D(Ni  1,S   4,Ni  0,S   3)    -14.3885         0.003543   
    319. D(Ni  1,S   4,Ni  0,Mn  2)    -68.0308         0.003543   
    320. D(Ni  1,S   4,Ni  0,C  10)    162.1841         0.003543   
    321. D(C  12,C   8,Ni  0,S   4)   -138.6618         0.002678   
    322. D(C  12,C   8,Ni  0,S   3)     93.4519         0.002678   
    323. D(C   9,C   8,Ni  0,C  10)     36.4893         0.002678   
    324. D(C   9,C   8,Ni  0,C  12)    117.0049         0.002678   
    325. D(C   9,C   8,Ni  0,C  11)     79.4028         0.002678   
    326. D(C  12,C   8,Ni  0,Mn  2)    154.5035         0.002678   
    327. D(C   9,C   8,Ni  0,S   4)    -21.6569         0.002678   
    328. D(C   9,C   8,Ni  0,S   3)   -149.5432         0.002678   
    329. D(C   9,C   8,Ni  0,Mn  2)    -88.4916         0.002678   
    330. D(C  12,C   8,Ni  0,Ni  1)     94.8427         0.002678   
    331. D(C   9,C   8,Ni  0,Ni  1)   -148.1524         0.002678   
    332. D(C   8,C   9,Ni  0,Mn  2)    108.3142         0.002362   
    333. D(C   8,C   9,Ni  0,S   4)    171.5364         0.002362   
    334. D(C   8,C   9,Ni  0,S   3)     46.9488         0.002362   
    335. D(C   8,C   9,Ni  0,C  11)    -81.7876         0.002362   
    336. D(C   8,C   9,Ni  0,Ni  1)    131.2793         0.002362   
    337. D(C   8,C   9,Ni  0,C  10)   -119.5731         0.002362   
    338. D(Ni  0,C   9,C   8,C  12)     60.3540         0.031462   
    339. D(C  10,C   9,C   8,C  12)      1.8388         0.031462   
    340. D(C  10,C   9,C   8,Ni  0)    -58.5152         0.031462   
    341. D(Ni  0,C   9,C   8,H  21)   -112.9855         0.031462   
    342. D(H  22,C   9,C   8,Ni  0)    114.8836         0.031462   
    343. D(C  10,C   9,Ni  0,S   4)    -68.8906         0.002362   
    344. D(C  10,C   9,C   8,H  21)   -171.5006         0.031462   
    345. D(C  10,C   9,Ni  0,S   3)    166.5218         0.002362   
    346. D(C  10,C   9,Ni  0,Mn  2)   -132.1128         0.002362   
    347. D(C  10,C   9,Ni  0,Ni  1)   -109.1477         0.002362   
    348. D(C   8,C   9,Ni  0,C  12)    -38.9441         0.002362   
    349. D(C  11,C  10,C   9,H  22)   -176.0849         0.031975   
    350. D(C  11,C  10,C   9,C   8)     -3.3679         0.031975   
    351. D(C  11,C  10,C   9,Ni  0)    -62.0294         0.031975   
    352. D(Ni  0,C  10,C   9,C   8)     58.6615         0.031975   
    353. D(C  11,C  10,Ni  0,S   4)   -115.5459         0.002731   
    354. D(C  11,C  10,Ni  0,S   3)     42.4166         0.002731   
    355. D(C  11,C  10,Ni  0,Mn  2)   -174.4767         0.002731   
    356. D(C  11,C  10,Ni  0,Ni  1)    -94.8029         0.002731   
    357. D(C   9,C  10,Ni  0,C  12)    -80.5831         0.002731   
    358. D(C   9,C  10,Ni  0,C  11)   -117.9126         0.002731   
    359. D(C   9,C  10,Ni  0,C   8)    -36.4964         0.002731   
    360. D(Ni  0,C  10,C   9,H  22)   -114.0555         0.031975   
    361. D(C   9,C  10,Ni  0,S   4)    126.5415         0.002731   
    362. D(C   9,C  10,Ni  0,S   3)    -75.4961         0.002731   
    363. D(C   9,C  10,Ni  0,Mn  2)     67.6107         0.002731   
    364. D(H  23,C  10,C   9,Ni  0)    117.4755         0.031975   
    365. D(C   9,C  10,Ni  0,Ni  1)    147.2844         0.002731   
    366. D(H  24,C  11,C  10,Ni  0)    117.8772         0.030823   
    367. D(C  12,C  11,C  10,C   9)      3.5811         0.030823   
    368. D(C  12,C  11,C  10,Ni  0)    -59.7159         0.030823   
    369. D(Ni  0,C  11,C  10,H  23)   -116.2210         0.030823   
    370. D(C  12,C  11,Ni  0,S   4)   -162.8092         0.002687   
    371. D(C  12,C  11,Ni  0,S   3)    -53.1689         0.002687   
    372. D(C  12,C  11,Ni  0,Mn  2)    140.5467         0.002687   
    373. D(C  12,C  11,Ni  0,Ni  1)   -113.1599         0.002687   
    374. D(C  10,C  11,Ni  0,C  12)   -118.2450         0.002687   
    375. D(C  10,C  11,Ni  0,C   9)    -37.2328         0.002687   
    376. D(Ni  0,C  11,C  10,C   9)     63.2970         0.030823   
    377. D(C  10,C  11,Ni  0,C   8)    -79.5432         0.002687   
    378. D(C  10,C  11,Ni  0,S   4)     78.9458         0.002687   
    379. D(C  10,C  11,Ni  0,S   3)   -171.4139         0.002687   
    380. D(C  12,C  11,C  10,H  23)   -175.9369         0.030823   
    381. D(C  10,C  11,Ni  0,Mn  2)     22.3017         0.002687   
    382. D(C  10,C  11,Ni  0,Ni  1)    128.5951         0.002687   
    383. D(H  25,C  12,C  11,Ni  0)    117.7022         0.034906   
    384. D(C   8,C  12,C  11,H  24)   -179.8377         0.034906   
    385. D(C   8,C  12,C  11,C  10)     -2.4007         0.034906   
    386. D(C   8,C  12,C  11,Ni  0)    -62.8763         0.034906   
    387. D(Ni  0,C  12,C  11,C  10)     60.4756         0.034906   
    388. D(H  25,C  12,C   8,Ni  0)   -117.3027         0.025640   
    389. D(C  11,C  12,C   8,H  21)    173.9298         0.025640   
    390. D(C  11,C  12,C   8,Ni  0)     63.2452         0.025640   
    391. D(Ni  0,C  12,C   8,H  21)    110.6846         0.025640   
    392. D(Ni  0,C  12,C   8,C   9)    -62.8876         0.025640   
    393. D(C  11,C  12,Ni  0,S   4)     34.5274         0.003059   
    394. D(C  11,C  12,Ni  0,S   3)    143.3557         0.003059   
    395. D(C  11,C  12,Ni  0,Mn  2)   -166.1952         0.003059   
    396. D(C  11,C  12,C   8,C   9)      0.3576         0.025640   
    397. D(C  11,C  12,Ni  0,Ni  1)    104.8105         0.003059   
    398. D(C   8,C  12,Ni  0,C  11)    117.2267         0.003059   
    399. D(C   8,C  12,Ni  0,C  10)     79.7439         0.003059   
    400. D(Ni  0,C  12,C  11,H  24)   -116.9614         0.034906   
    401. D(C   8,C  12,Ni  0,C   9)     37.4416         0.003059   
    402. D(C   8,C  12,Ni  0,S   4)    151.7541         0.003059   
    403. D(C   8,C  12,Ni  0,S   3)    -99.4176         0.003059   
    404. D(C   8,C  12,Ni  0,Mn  2)    -48.9685         0.003059   
    405. D(C   8,C  12,Ni  0,Ni  1)   -137.9628         0.003059   
    406. D(C  17,C  13,Ni  1,S   4)     70.1536         0.002428   
    407. D(C  17,C  13,Ni  1,S   3)   -166.0012         0.002428   
    408. D(C  17,C  13,Ni  1,Mn  2)    133.1934         0.002428   
    409. D(C  17,C  13,Ni  1,Ni  0)    107.5087         0.002428   
    410. D(C  14,C  13,Ni  1,C  17)    120.3138         0.002428   
    411. D(C  14,C  13,Ni  1,C  16)     82.3444         0.002428   
    412. D(C  14,C  13,Ni  1,C  15)     39.4871         0.002428   
    413. D(C  14,C  13,Ni  1,S   4)   -169.5326         0.002428   
    414. D(C  14,C  13,Ni  1,S   3)    -45.6874         0.002428   
    415. D(C  14,C  13,Ni  1,Mn  2)   -106.4928         0.002428   
    416. D(C  14,C  13,Ni  1,Ni  0)   -132.1775         0.002428   
    417. D(C  15,C  14,C  13,H  26)   -177.2316         0.036469   
    418. D(C  15,C  14,C  13,C  17)     -2.1581         0.036469   
    419. D(C  15,C  14,C  13,Ni  1)    -60.5826         0.036469   
    420. D(Ni  1,C  14,C  13,C  17)     58.4245         0.036469   
    421. D(C  15,C  14,Ni  1,S   4)    141.3207         0.002641   
    422. D(C  15,C  14,Ni  1,S   3)    -92.5067         0.002641   
    423. D(C  15,C  14,Ni  1,Mn  2)   -153.8092         0.002641   
    424. D(C  15,C  14,Ni  1,Ni  0)    -97.0673         0.002641   
    425. D(C  13,C  14,Ni  1,C  17)    -36.3009         0.002641   
    426. D(C  13,C  14,Ni  1,C  16)    -79.1752         0.002641   
    427. D(C  13,C  14,Ni  1,C  15)   -116.7062         0.002641   
    428. D(Ni  1,C  14,C  13,H  26)   -116.6490         0.036469   
    429. D(C  13,C  14,Ni  1,S   4)     24.6144         0.002641   
    430. D(C  13,C  14,Ni  1,S   3)    150.7870         0.002641   
    431. D(C  13,C  14,Ni  1,Mn  2)     89.4846         0.002641   
    432. D(H  27,C  14,C  13,Ni  1)    113.9200         0.036469   
    433. D(C  13,C  14,Ni  1,Ni  0)    146.2265         0.002641   
    434. D(H  28,C  15,C  14,Ni  1)    111.8598         0.022346   
    435. D(C  16,C  15,C  14,C  13)     -0.0457         0.022346   
    436. D(C  16,C  15,C  14,Ni  1)    -62.8467         0.022346   
    437. D(Ni  1,C  15,C  14,H  27)   -111.7095         0.022346   
    438. D(C  16,C  15,Ni  1,S   4)    -31.2792         0.002911   
    439. D(C  16,C  15,Ni  1,S   3)   -141.9464         0.002911   
    440. D(C  16,C  15,Ni  1,Mn  2)    166.1417         0.002911   
    441. D(C  16,C  15,Ni  1,Ni  0)   -104.1821         0.002911   
    442. D(C  14,C  15,Ni  1,C  17)    -79.6617         0.002911   
    443. D(C  14,C  15,Ni  1,C  16)   -117.1374         0.002911   
    444. D(Ni  1,C  15,C  14,C  13)     62.8010         0.022346   
    445. D(C  14,C  15,Ni  1,C  13)    -37.1704         0.002911   
    446. D(C  14,C  15,Ni  1,S   4)   -148.4165         0.002911   
    447. D(C  14,C  15,Ni  1,S   3)    100.9162         0.002911   
    448. D(C  16,C  15,C  14,H  27)   -174.5562         0.022346   
    449. D(C  14,C  15,Ni  1,Mn  2)     49.0044         0.002911   
    450. D(C  14,C  15,Ni  1,Ni  0)    138.6806         0.002911   
    451. D(C  17,C  16,C  15,Ni  1)    -60.1155         0.033502   
    452. D(Ni  1,C  16,C  15,H  28)   -112.7009         0.033502   
    453. D(Ni  1,C  16,C  15,C  14)     62.3207         0.033502   
    454. D(C  17,C  16,Ni  1,S   3)    173.0989         0.002639   
    455. D(C  17,C  16,Ni  1,Mn  2)    -16.6026         0.002639   
    456. D(C  17,C  16,Ni  1,Ni  0)   -127.0829         0.002639   
    457. D(C  15,C  16,Ni  1,C  17)   -118.2801         0.002639   
    458. D(C  15,C  16,Ni  1,C  14)    -38.9944         0.002639   
    459. D(C  15,C  16,Ni  1,C  13)    -80.7403         0.002639   
    460. D(C  17,C  16,Ni  1,S   4)    -76.7420         0.002639   
    461. D(C  15,C  16,Ni  1,S   4)    164.9779         0.002639   
    462. D(C  15,C  16,Ni  1,S   3)     54.8188         0.002639   
    463. D(C  15,C  16,Ni  1,Mn  2)   -134.8826         0.002639   
    464. D(C  17,C  16,C  15,C  14)      2.2053         0.033502   
    465. D(C  15,C  16,Ni  1,Ni  0)    114.6370         0.002639   
    466. D(H  29,C  16,C  15,Ni  1)    113.8733         0.033502   
    467. D(C  17,C  16,C  15,H  28)   -172.8164         0.033502   
    468. D(H  30,C  17,C  16,Ni  1)    116.1705         0.030819   
    469. D(C  13,C  17,C  16,C  15)     -3.5645         0.030819   
    470. D(C  13,C  17,C  16,Ni  1)    -63.4341         0.030819   
    471. D(Ni  1,C  17,C  16,H  29)   -114.7536         0.030819   
    472. D(Ni  1,C  17,C  16,C  15)     59.8697         0.030819   
    473. D(H  30,C  17,C  13,Ni  1)   -117.0177         0.032182   
    474. D(C  16,C  17,C  13,H  26)    178.3316         0.032182   
    475. D(C  16,C  17,C  13,C  14)      3.5892         0.032182   
    476. D(C  16,C  17,C  13,Ni  1)     62.5915         0.032182   
    477. D(Ni  1,C  17,C  13,H  26)    115.7400         0.032182   
    478. D(Ni  1,C  17,C  13,C  14)    -59.0024         0.032182   
    479. D(C  16,C  17,Ni  1,S   4)    117.6630         0.002791   
    480. D(C  16,C  17,Ni  1,S   3)    -33.7441         0.002791   
    481. D(C  16,C  17,Ni  1,Mn  2)    176.0968         0.002791   
    482. D(C  16,C  17,Ni  1,Ni  0)     96.2677         0.002791   
    483. D(C  13,C  17,Ni  1,C  16)    117.5127         0.002791   
    484. D(C  13,C  17,Ni  1,C  15)     80.2238         0.002791   
    485. D(C  13,C  17,Ni  1,C  14)     35.7444         0.002791   
    486. D(C  13,C  17,Ni  1,S   4)   -124.8243         0.002791   
    487. D(C  13,C  17,Ni  1,S   3)     83.7686         0.002791   
    488. D(C  13,C  17,C  16,H  29)   -178.1877         0.030819   
    489. D(C  13,C  17,Ni  1,Mn  2)    -66.3906         0.002791   
    490. D(C  13,C  17,Ni  1,Ni  0)   -146.2196         0.002791   
    -----------------------------------------------------------------

Number of atoms                         .... 31
Number of degrees of freedom            .... 490


         *************************************************************
         *                GEOMETRY OPTIMIZATION CYCLE   1            *
         *************************************************************
---------------------------------
CARTESIAN COORDINATES (ANGSTROEM)
---------------------------------
  Ni     2.268800    4.814900    1.884700
  Ni     1.961600    7.965600    2.002200
  Mn     0.484800    6.187400    3.183300
  S      1.012100    6.318500    0.961900
  S      2.786900    6.409000    3.250800
  O     -1.271200    3.849700    2.971100
  O      0.445700    6.053900    6.129700
  O     -1.790700    8.042900    3.142200
  C      1.673400    2.921700    1.171900
  C      2.159900    2.745100    2.462500
  C      3.472000    3.198600    2.485700
  C      3.840700    3.588900    1.200200
  C      2.731600    3.454000    0.394700
  C      1.491900    9.909200    2.769100
  C      0.980300    9.769500    1.503900
  C      2.091800    9.528200    0.629500
  C      3.245000    9.530000    1.392100
  C      2.865100    9.715800    2.719500
  C     -0.589100    4.767800    3.063900
  C      0.473200    6.111700    4.986000
  C     -0.900500    7.320100    3.166600
  H      0.800800    2.814200    0.876200
  H      1.576200    2.445300    3.211000
  H      4.005700    3.246300    3.200200
  H      4.571300    3.868200    1.008800
  H      2.666000    3.625800   -0.367300
  H      0.967100   10.034100    3.504900
  H      0.032900    9.749500    1.257900
  H      2.080800    9.370100   -0.073500
  H      4.072900    9.370100    1.168300
  H      3.421100    9.707300    3.443900

----------------------------
CARTESIAN COORDINATES (A.U.)
----------------------------
  NO LB      ZA    FRAG     MASS         X           Y           Z
   0 Ni   28.0000    0    58.700    4.287411    9.098842    3.561567
   1 Ni   28.0000    0    58.700    3.706887   15.052802    3.783610
   2 Mn   25.0000    0    54.940    0.916139   11.692491    6.015565
   3 S    16.0000    0    32.060    1.912592   11.940235    1.817728
   4 S    16.0000    0    32.060    5.266478   12.111255    6.143122
   5 O     8.0000    0    15.999   -2.402220    7.274879    5.614565
   6 O     8.0000    0    15.999    0.842251   11.440213   11.583454
   7 O     8.0000    0    15.999   -3.383933   15.198878    5.937897
   8 C     6.0000    0    12.011    3.162268    5.521213    2.214570
   9 C     6.0000    0    12.011    4.081619    5.187487    4.653451
  10 C     6.0000    0    12.011    6.561129    6.044478    4.697292
  11 C     6.0000    0    12.011    7.257871    6.782038    2.268049
  12 C     6.0000    0    12.011    5.161976    6.527114    0.745875
  13 C     6.0000    0    12.011    2.819282   18.725674    5.232841
  14 C     6.0000    0    12.011    1.852499   18.461679    2.841959
  15 C     6.0000    0    12.011    3.952929   18.005689    1.189583
  16 C     6.0000    0    12.011    6.132161   18.009090    2.630688
  17 C     6.0000    0    12.011    5.414254   18.360201    5.139110
  18 C     6.0000    0    12.011   -1.113238    9.009836    5.789932
  19 C     6.0000    0    12.011    0.894218   11.549439    9.422175
  20 C     6.0000    0    12.011   -1.701698   13.832984    5.984007
  21 H     1.0000    0     1.008    1.513293    5.318067    1.655778
  22 H     1.0000    0     1.008    2.978586    4.620947    6.067911
  23 H     1.0000    0     1.008    7.569676    6.134618    6.047502
  24 H     1.0000    0     1.008    8.638505    7.309839    1.906356
  25 H     1.0000    0     1.008    5.038010    6.851769   -0.694096
  26 H     1.0000    0     1.008    1.827554   18.961701    6.623301
  27 H     1.0000    0     1.008    0.062172   18.423885    2.377087
  28 H     1.0000    0     1.008    3.932142   17.706923   -0.138895
  29 H     1.0000    0     1.008    7.696666   17.706923    2.207767
  30 H     1.0000    0     1.008    6.464942   18.344138    6.508028

--------------------------------
INTERNAL COORDINATES (ANGSTROEM)
--------------------------------
 Ni     0   0   0     0.000000000000     0.00000000     0.00000000
 Ni     1   0   0     3.167820793542     0.00000000     0.00000000
 Mn     2   1   0     2.595752432340    52.46177417     0.00000000
 S      1   2   3     2.166025782395    43.03942604    78.70289562
 S      2   1   3     2.159427148574    42.89863391    80.06557843
 O      3   2   1     2.931451198639   148.66635502   301.80365427
 O      3   2   1     2.949682020151   119.54139472   115.20035450
 O      3   2   1     2.936404214341    90.09369990   207.38170101
 C      1   2   3     2.108741624761   151.41298620    76.76890847
 C      9   1   2     1.390510039518    72.63260978   211.84757675
 C     10   9   1     1.388454860627   107.73756858   301.48484244
 C     11  10   9     1.393120249655   109.03782525   356.63205090
 C     12  11  10     1.377363811780   107.40263304     3.58107286
 C      2   1   3     2.141572940621   159.58716931    31.01108692
 C     14   2   1     1.371853377734    70.06898966   227.82252148
 C     15  14   2     1.434654418318   106.87614108   299.41739676
 C     16  15  14     1.382545565253   108.04867982   359.95426191
 C     14   2   1     1.387638987633    69.12489858   107.50872483
 C      6   3   2     1.147510287536     0.57310380   206.91540561
 C      7   3   2     1.145489755519     0.68476441   336.14745659
 C      8   3   2     1.146948664937     0.43385283   258.94405310
 H      9   1   2     0.927591235405   118.51644958   335.75135014
 H     10   9   1     0.995408448829   122.07393094   114.88356705
 H     11  10   9     0.893096428164   126.55068735   176.13702522
 H     12  11  10     0.805244565334   123.82298361   181.17420595
 H     13  12  11     0.783876648459   127.90932507   178.17772666
 H     14   2   1     0.912368724804   122.62899019   344.81913087
 H     15  14   2     0.979021327653   126.49109493   113.92002245
 H     16  15  14     0.720642498053   128.28965236   174.66079456
 H     17  16  15     0.872394899114   130.52878065   176.19405619
 H     18  14   2     0.913216080673   125.13084396   242.98233721

---------------------------
INTERNAL COORDINATES (A.U.)
---------------------------
 Ni     0   0   0     0.000000000000     0.00000000     0.00000000
 Ni     1   0   0     5.986313741136     0.00000000     0.00000000
 Mn     2   1   0     4.905261208583    52.46177417     0.00000000
 S      1   2   3     4.093195527739    43.03942604    78.70289562
 S      2   1   3     4.080725916960    42.89863391    80.06557843
 O      3   2   1     5.539639940382   148.66635502   301.80365427
 O      3   2   1     5.574091200236   119.54139472   115.20035450
 O      3   2   1     5.548999783597    90.09369990   207.38170101
 C      1   2   3     3.984944157999   151.41298620    76.76890847
 C      9   1   2     2.627683161157    72.63260978   211.84757675
 C     10   9   1     2.623799435898   107.73756858   301.48484244
 C     11  10   9     2.632615743469   109.03782525   356.63205090
 C     12  11  10     2.602840391037   107.40263304     3.58107286
 C      2   1   3     4.046986353590   159.58716931    31.01108692
 C     14   2   1     2.592427179812    70.06898966   227.82252148
 C     15  14   2     2.711103947442   106.87614108   299.41739676
 C     16  15  14     2.612632485995   108.04867982   359.95426191
 C     14   2   1     2.622257659379    69.12489858   107.50872483
 C      6   3   2     2.168480179299     0.57310380   206.91540561
 C      7   3   2     2.164661927144     0.68476441   336.14745659
 C      8   3   2     2.167418866397     0.43385283   258.94405310
 H      9   1   2     1.752893399141   118.51644958   335.75135014
 H     10   9   1     1.881049359678   122.07393094   114.88356705
 H     11  10   9     1.687707660414   126.55068735   176.13702522
 H     12  11  10     1.521691699310   123.82298361   181.17420595
 H     13  12  11     1.481312188364   127.90932507   178.17772666
 H     14   2   1     1.724127023034   122.62899019   344.81913087
 H     15  14   2     1.850082188533   126.49109493   113.92002245
 H     16  15  14     1.361816961785   128.28965236   174.66079456
 H     17  16  15     1.648587439955   130.52878065   176.19405619
 H     18  14   2     1.725728293565   125.13084396   242.98233721

---------------------
BASIS SET INFORMATION
---------------------
There are 6 groups of distinct atoms

 Group   1 Type Ni  : 17s11p7d1f contracted to 6s4p4d1f pattern {842111/6311/4111/1}
 Group   2 Type Mn  : 17s11p7d1f contracted to 6s4p4d1f pattern {842111/6311/4111/1}
 Group   3 Type S   : 14s9p3d1f contracted to 5s5p2d1f pattern {73211/51111/21/1}
 Group   4 Type O   : 11s6p2d1f contracted to 5s3p2d1f pattern {62111/411/11/1}
 Group   5 Type C   : 11s6p2d1f contracted to 5s3p2d1f pattern {62111/411/11/1}
 Group   6 Type H   : 5s1p contracted to 3s1p pattern {311/1}

Atom   0Ni   basis set group =>   1
Atom   1Ni   basis set group =>   1
Atom   2Mn   basis set group =>   2
Atom   3S    basis set group =>   3
Atom   4S    basis set group =>   3
Atom   5O    basis set group =>   4
Atom   6O    basis set group =>   4
Atom   7O    basis set group =>   4
Atom   8C    basis set group =>   5
Atom   9C    basis set group =>   5
Atom  10C    basis set group =>   5
Atom  11C    basis set group =>   5
Atom  12C    basis set group =>   5
Atom  13C    basis set group =>   5
Atom  14C    basis set group =>   5
Atom  15C    basis set group =>   5
Atom  16C    basis set group =>   5
Atom  17C    basis set group =>   5
Atom  18C    basis set group =>   5
Atom  19C    basis set group =>   5
Atom  20C    basis set group =>   5
Atom  21H    basis set group =>   6
Atom  22H    basis set group =>   6
Atom  23H    basis set group =>   6
Atom  24H    basis set group =>   6
Atom  25H    basis set group =>   6
Atom  26H    basis set group =>   6
Atom  27H    basis set group =>   6
Atom  28H    basis set group =>   6
Atom  29H    basis set group =>   6
Atom  30H    basis set group =>   6
---------------------------------
AUXILIARY/J BASIS SET INFORMATION
---------------------------------
There are 6 groups of distinct atoms

 Group   1 Type Ni  : 19s5p5d3f3g contracted to 8s5p5d2f3g pattern {121111111/11111/11111/21/111}
 Group   2 Type Mn  : 19s5p5d3f3g contracted to 8s5p5d2f3g pattern {121111111/11111/11111/21/111}
 Group   3 Type S   : 14s5p5d2f1g contracted to 8s4p3d1f1g pattern {71111111/2111/311/2/1}
 Group   4 Type O   : 12s5p4d2f1g contracted to 6s4p3d1f1g pattern {711111/2111/211/2/1}
 Group   5 Type C   : 12s5p4d2f1g contracted to 6s4p3d1f1g pattern {711111/2111/211/2/1}
 Group   6 Type H   : 5s2p1d contracted to 3s1p1d pattern {311/2/1}

Atom   0Ni   basis set group =>   1
Atom   1Ni   basis set group =>   1
Atom   2Mn   basis set group =>   2
Atom   3S    basis set group =>   3
Atom   4S    basis set group =>   3
Atom   5O    basis set group =>   4
Atom   6O    basis set group =>   4
Atom   7O    basis set group =>   4
Atom   8C    basis set group =>   5
Atom   9C    basis set group =>   5
Atom  10C    basis set group =>   5
Atom  11C    basis set group =>   5
Atom  12C    basis set group =>   5
Atom  13C    basis set group =>   5
Atom  14C    basis set group =>   5
Atom  15C    basis set group =>   5
Atom  16C    basis set group =>   5
Atom  17C    basis set group =>   5
Atom  18C    basis set group =>   5
Atom  19C    basis set group =>   5
Atom  20C    basis set group =>   5
Atom  21H    basis set group =>   6
Atom  22H    basis set group =>   6
Atom  23H    basis set group =>   6
Atom  24H    basis set group =>   6
Atom  25H    basis set group =>   6
Atom  26H    basis set group =>   6
Atom  27H    basis set group =>   6
Atom  28H    basis set group =>   6
Atom  29H    basis set group =>   6
Atom  30H    basis set group =>   6


           ************************************************************
           *        Program running with 16 parallel MPI-processes    *
           *              working on a common directory               *
           ************************************************************
------------------------------------------------------------------------------
                             ORCA STARTUP CALCULATIONS
                           -- RI-GTO INTEGRALS CHOSEN --
------------------------------------------------------------------------------
------------------------------------------------------------------------------
                   ___                                                        
                  /   \      - P O W E R E D   B Y -                         
                 /     \                                                     
                 |  |  |   _    _      __       _____    __    __             
                 |  |  |  | |  | |    /  \     |  _  \  |  |  /  |          
                  \  \/   | |  | |   /    \    | | | |  |  | /  /          
                 / \  \   | |__| |  /  /\  \   | |_| |  |  |/  /          
                |  |  |   |  __  | /  /__\  \  |    /   |      \           
                |  |  |   | |  | | |   __   |  |    \   |  |\   \          
                \     /   | |  | | |  |  |  |  | |\  \  |  | \   \       
                 \___/    |_|  |_| |__|  |__|  |_| \__\ |__|  \__/        
                                                                              
                      - O R C A' S   B I G   F R I E N D -                    
                                      &                                       
                       - I N T E G R A L  F E E D E R -                       
                                                                              
 v1 FN, 2020, v2 2021, v3 2022-2024                                           
------------------------------------------------------------------------------


----------------------
SHARK INTEGRAL PACKAGE
----------------------

Number of atoms                             ...     31
Number of basis functions                   ...    765
Number of shells                            ...    287
Maximum angular momentum                    ...      3
Integral batch strategy                     ... SHARK/LIBINT Hybrid
RI-J (if used) integral strategy            ... SPLIT-RIJ (Revised 2003 algorithm where possible)
Printlevel                                  ...      1
Contraction scheme used                     ... SEGMENTED contraction
Prescreening option                         ... SCHWARTZ
   Thresh                                   ... 2.500e-11
   Tcut                                     ... 2.500e-12
   Tpresel                                  ... 2.500e-12 
Coulomb Range Separation                    ... NOT USED
Exchange Range Separation                   ... NOT USED
Multipole approximations                    ... NOT USED
Finite Nucleus Model                        ... NOT USED
CABS basis                                  ... NOT available
Auxiliary Coulomb fitting basis             ... AVAILABLE
   # of basis functions in Aux-J            ...   1263
   # of shells in Aux-J                     ...    393
   Maximum angular momentum in Aux-J        ...      4
Auxiliary J/K fitting basis                 ... NOT available
Auxiliary Correlation fitting basis         ... NOT available
Auxiliary 'external' fitting basis          ... NOT available

Checking pre-screening integrals            ... done (  0.0 sec) Dimension = 287
Check shell pair data                       ... done (  0.0 sec)
Shell pair information
Shell pair cut-off parameter TPreSel        ...   2.5e-12
Total number of shell pairs                 ...     41328
Shell pairs after pre-screening             ...     30080
Total number of primitive shell pairs       ...    147784
Primitive shell pairs kept                  ...     68072
          la=0 lb=0:   6579 shell pairs
          la=1 lb=0:   8216 shell pairs
          la=1 lb=1:   2623 shell pairs
          la=2 lb=0:   4778 shell pairs
          la=2 lb=1:   3044 shell pairs
          la=2 lb=2:    924 shell pairs
          la=3 lb=0:   1854 shell pairs
          la=3 lb=1:   1210 shell pairs
          la=3 lb=2:    711 shell pairs
          la=3 lb=3:    141 shell pairs

Calculating one electron integrals          ... done (  0.0 sec)
done (  0.1 sec)
Calculating Nuclear repulsion               ... done (  0.0 sec) ENN=   3879.194791636867 Eh

Diagonalization of the overlap matrix:
Smallest eigenvalue                        ... 3.053e-05
Time for diagonalization                   ...    0.075 sec
Threshold for overlap eigenvalues          ... 1.000e-07
Number of eigenvalues below threshold      ... 0
Time for construction of square roots      ...    0.052 sec
Total time needed                          ...    0.143 sec

-------------------
DFT GRID GENERATION
-------------------

General Integration Accuracy     IntAcc      ... 4.959
Radial Grid Type                 RadialGrid  ... OptM3 with GC (2021)
Angular Grid (max. ang.)         AngularGrid ... 6 (Lebedev-590)
Angular grid pruning method      GridPruning ... 4 (adaptive)
Weight generation scheme         WeightScheme... mBecke (2022)
Basis function cutoff            BFCut       ... 1.0000e-11
Integration weight cutoff        WCut        ... 1.0000e-14
Partially contracted basis set               ... off
Rotationally invariant grid construction     ... off
Angular grids for H and He will be reduced by one unit
Core-polarized basis detected: some atoms will have their core
                               angular grid increased.

Total number of grid points                  ...   423447
Total number of batches                      ...     6631
Average number of points per batch           ...       63
Average number of grid points per atom       ...    13660

--------------------
COSX GRID GENERATION
--------------------

GRIDX 1
-------
General Integration Accuracy     IntAcc      ... 4.020
Radial Grid Type                 RadialGrid  ... OptM3 with GC (2021)
Angular Grid (max. ang.)         AngularGrid ... 2 (Lebedev-110)
Angular grid pruning method      GridPruning ... 4 (adaptive)
Weight generation scheme         WeightScheme... mBecke (2022)
Basis function cutoff            BFCut       ... 1.0000e-11
Integration weight cutoff        WCut        ... 1.0000e-14
Partially contracted basis set               ... on
Rotationally invariant grid construction     ... off
Angular grids for H and He will be reduced by one unit
Core-polarized basis detected: some atoms will have their core
                               angular grid increased.

Total number of grid points                  ...    55515
Total number of batches                      ...      449
Average number of points per batch           ...      123
Average number of grid points per atom       ...     1791
UseSFitting                                  ... on

GRIDX 2
-------
General Integration Accuracy     IntAcc      ... 4.338
Radial Grid Type                 RadialGrid  ... OptM3 with GC (2021)
Angular Grid (max. ang.)         AngularGrid ... 3 (Lebedev-194)
Angular grid pruning method      GridPruning ... 4 (adaptive)
Weight generation scheme         WeightScheme... mBecke (2022)
Basis function cutoff            BFCut       ... 1.0000e-11
Integration weight cutoff        WCut        ... 1.0000e-14
Partially contracted basis set               ... on
Rotationally invariant grid construction     ... off
Angular grids for H and He will be reduced by one unit
Core-polarized basis detected: some atoms will have their core
                               angular grid increased.

Total number of grid points                  ...   103456
Total number of batches                      ...      827
Average number of points per batch           ...      125
Average number of grid points per atom       ...     3337
UseSFitting                                  ... on

GRIDX 3
-------
General Integration Accuracy     IntAcc      ... 4.871
Radial Grid Type                 RadialGrid  ... OptM3 with GC (2021)
Angular Grid (max. ang.)         AngularGrid ... 4 (Lebedev-302)
Angular grid pruning method      GridPruning ... 4 (adaptive)
Weight generation scheme         WeightScheme... mBecke (2022)
Basis function cutoff            BFCut       ... 1.0000e-11
Integration weight cutoff        WCut        ... 1.0000e-14
Partially contracted basis set               ... on
Rotationally invariant grid construction     ... off
Angular grids for H and He will be reduced by one unit
Core-polarized basis detected: some atoms will have their core
                               angular grid increased.

Total number of grid points                  ...   191157
Total number of batches                      ...     1508
Average number of points per batch           ...      126
Average number of grid points per atom       ...     6166
UseSFitting                                  ... on
Initializing property integral containers    ... done (  0.0 sec)

SHARK setup successfully completed in   5.7 seconds

Maximum memory used throughout the entire STARTUP-calculation: 127.2 MB


           ************************************************************
           *        Program running with 16 parallel MPI-processes    *
           *              working on a common directory               *
           ************************************************************
-------------------------------------------------------------------------------
                                 ORCA GUESS
                   Start orbitals & Density for SCF / CASSCF
-------------------------------------------------------------------------------

------------
SCF SETTINGS
------------
Hamiltonian:
 Density Functional     Method          .... DFT(GTOs)
 Exchange Functional    Exchange        .... PBE
   PBE kappa parameter   XKappa         ....  0.804000
   PBE mue parameter    XMuePBE         ....  0.219520
 Correlation Functional Correlation     .... PBE
   PBE beta parameter  CBetaPBE         ....  0.066725
 LDA part of GGA corr.  LDAOpt          .... PW91-LDA
 Gradients option       PostSCFGGA      .... off
 Hybrid DFT is turned on
   Fraction HF Exchange ScalHFX         ....  0.250000
   Scaling of DF-GGA-X  ScalDFX         ....  0.750000
   Scaling of DF-GGA-C  ScalDFC         ....  1.000000
   Scaling of DF-LDA-C  ScalLDAC        ....  1.000000
   Perturbative correction              ....  0.000000
   NL short-range parameter             ....  6.900000
 RI-approximation to the Coulomb term is turned on
   Number of AuxJ basis functions       .... 1263
   RIJ-COSX (HFX calculated with COS-X)).... on


General Settings:
 Integral files         IntName         .... AXUMEL-S2
 Hartree-Fock type      HFTyp           .... UHF
 Total Charge           Charge          ....    0
 Multiplicity           Mult            ....    4
 Number of Electrons    NEL             ....  225
 Basis Dimension        Dim             ....  765
 Nuclear Repulsion      ENuc            ....   3879.1947916369 Eh

Convergence Acceleration:
 AO-DIIS                CNVDIIS         .... on
   Start iteration      DIISMaxIt       ....    12
   Startup error        DIISStart       ....  0.200000
   # of expansion vecs  DIISMaxEq       ....     5
   Bias factor          DIISBfac        ....   1.050
   Max. coefficient     DIISMaxC        ....  10.000
 MO-DIIS                CNVKDIIS        .... off
 Trust-Rad. Augm. Hess. CNVTRAH         .... auto
   Auto Start mean grad. ratio tolernc. ....  1.125000
   Auto Start start iteration           ....    50
   Auto Start num. interpolation iter.  ....    10
   Max. Number of Micro iterations      ....    24
   Max. Number of Macro iterations      .... Maxiter - #DIIS iter
   Number of Davidson start vectors     ....     2
   Converg. threshold    (grad. norm)   ....   1.000e-05
   Grad. Scal. Fac. for Micro threshold ....   0.100
   Minimum threshold for Micro iter.    ....   1.000e-02
   NR start threshold (gradient norm)   ....   1.000e-04
   Initial trust radius                 ....   0.400
   Minimum AH scaling param. (alpha)    ....   1.000
   Maximum AH scaling param. (alpha)    .... 1000.000
   Quad. conv. algorithm                .... NR
   White noise on init. David. guess    .... on
   Maximum white noise                  ....   0.010
   Pseudo random numbers                .... off
   Inactive MOs                         .... canonical
   Orbital update algorithm             .... Taylor
   Preconditioner                       .... Diag
   Full preconditioner red. dimension   ....   250
 SOSCF                  CNVSOSCF        .... on
   Start iteration      SOSCFMaxIt      ....   150
   Startup grad/error   SOSCFStart      ....  0.003300
   Hessian update       SOSCFHessUp     .... L-BFGS
 Level Shifting         CNVShift        .... on
   Level shift para.    LevelShift      ....    0.2500
   Turn off err/grad.   ShiftErr        ....    0.0010
 Zerner damping         CNVZerner       .... off
 Static damping         CNVDamp         .... on
   Fraction old density DampFac         ....    0.7000
   Max. Damping (<1)    DampMax         ....    0.9800
   Min. Damping (>=0)   DampMin         ....    0.0000
   Turn off err/grad.   DampErr         ....    0.1000

SCF Procedure:
 Maximum # iterations   MaxIter         ....   125
 SCF integral mode      SCFMode         .... Direct
   Integral package                     .... SHARK and LIBINT hybrid scheme
 Reset frequency        DirectResetFreq ....    20
 Integral Threshold     Thresh          ....  2.500e-11 Eh
 Primitive CutOff       TCut            ....  2.500e-12 Eh

Convergence Tolerance:
 Convergence Check Mode ConvCheckMode   .... Total+1el-Energy
 Convergence forced     ConvForced      .... 0
 Energy Change          TolE            ....  1.000e-08 Eh
 1-El. energy change                    ....  1.000e-05 Eh
 Orbital Gradient       TolG            ....  1.000e-05
 Orbital Rotation angle TolX            ....  1.000e-05
 DIIS Error             TolErr          ....  5.000e-07

------------------------------
INITIAL GUESS: MODEL POTENTIAL
------------------------------
Loading Hartree-Fock densities                     ... done
Calculating cut-offs                               ... done
Initializing the effective Hamiltonian             ... done
Setting up the integral package (SHARK)            ... done
done (   0.2 sec)
Making the grid                                    ... done (   0.2 sec)
Mapping shells                                     ... done
Starting the XC term evaluation                    ... done (   0.1 sec)
  promolecular density results
     # of electrons  =    224.991819618
     EX              =   -318.382758518
     EC              =     -8.833510893
     EX+EC           =   -327.216269411
Transforming the Hamiltonian                       ... done (   0.1 sec)
done (   0.1 sec)
Back transforming the eigenvectors                 ... done (   0.0 sec)
done
                      ------------------
                      INITIAL GUESS DONE (   0.8 sec)
                      ------------------
             **** ENERGY FILE WAS UPDATED (AXUMEL-S2.en.tmp) ****
Finished Guess after   1.1 sec
Maximum memory used throughout the entire GUESS-calculation: 60.5 MB


           ************************************************************
           *        Program running with 16 parallel MPI-processes    *
           *              working on a common directory               *
           ************************************************************

-------------------------------------------------------------------------------------------
                                      ORCA LEAN-SCF
                              memory conserving SCF solver
-------------------------------------------------------------------------------------------

----------------------------------------D-I-I-S--------------------------------------------
Iteration    Energy (Eh)           Delta-E    RMSDP     MaxDP     DIISErr   Damp  Time(sec)
-------------------------------------------------------------------------------------------
               ***  Starting incremental Fock matrix formation  ***
    1    -5688.6364972874816885     0.00e+00  4.34e-04  2.22e-02  9.74e-02  0.700  11.9
Warning: op=0 Small HOMO/LUMO gap (   0.026) - skipping pre-diagonalization
         Will do a full diagonalization
    2    -5688.8841649076766771    -2.48e-01  3.95e-04  2.23e-02  5.19e-02  0.700   7.0
                               ***Turning on AO-DIIS***
    3    -5688.9983988992808008    -1.14e-01  2.13e-04  1.26e-02  2.26e-02  0.700   6.6
    4    -5689.0676958746480523    -6.93e-02  4.44e-04  2.49e-02  1.47e-02  0.000   6.2
    5    -5689.2220064272059972    -1.54e-01  1.49e-04  1.20e-02  2.31e-02  0.000   6.5
    6    -5689.2257405141699564    -3.73e-03  7.15e-05  4.96e-03  2.69e-02  0.000   6.0
    7    -5689.2315629555414489    -5.82e-03  6.05e-05  4.98e-03  9.56e-03  0.000   5.7
    8    -5689.2335582938339940    -2.00e-03  4.21e-05  4.99e-03  5.75e-03  0.000   5.8
    9    -5689.2349973324198800    -1.44e-03  4.90e-05  4.31e-03  3.49e-03  0.000   5.5
                              *** Initializing SOSCF ***
---------------------------------------S-O-S-C-F--------------------------------------
Iteration    Energy (Eh)           Delta-E    RMSDP     MaxDP     MaxGrad    Time(sec)
--------------------------------------------------------------------------------------
   10    -5689.2360666405438678    -1.07e-03  3.09e-05  2.52e-03  1.66e-03     6.1
               *** Restarting incremental Fock matrix formation ***
   11    -5689.2365866927211755    -5.20e-04  4.48e-05  3.99e-03  4.04e-03    11.3
   12    -5689.2366589712673886    -7.23e-05  8.80e-05  6.51e-03  5.42e-03     8.5
   13    -5689.2371744865995424    -5.16e-04  5.17e-05  4.76e-03  3.98e-03     9.2
   14    -5689.2365813893138693     5.93e-04  4.67e-05  5.30e-03  5.56e-03     9.6
   15    -5689.2371001040319243    -5.19e-04  6.16e-05  4.07e-03  4.38e-03     9.8
   16    -5689.2363727567808382     7.27e-04  4.70e-05  5.20e-03  8.53e-03     9.8
   17    -5689.2374406631242891    -1.07e-03  5.39e-05  4.48e-03  3.58e-03     9.7
   18    -5689.2360104949511879     1.43e-03  4.34e-05  3.67e-03  8.72e-03     9.5
   19    -5689.2376070626050932    -1.60e-03  6.01e-06  3.85e-04  1.83e-04     9.6
   20    -5689.2376091100759368    -2.05e-06  5.02e-06  2.98e-04  2.36e-04     8.0
   21    -5689.2376139559219155    -4.85e-06  1.87e-05  1.19e-03  2.50e-04     7.7
   22    -5689.2376230057343491    -9.05e-06  3.32e-05  2.20e-03  3.11e-04     8.8
[...]
 29:    333.51   0.002825   14.28  0.002643  ( 0.024667 -0.040417 -0.020035)
 30:    370.17   0.000896    4.53  0.000755  (-0.011299  0.023529  0.008604)
 31:    405.15   0.000438    2.21  0.000337  ( 0.011632  0.001149  0.014165)
 32:    424.80   0.000014    0.07  0.000010  (-0.000902 -0.003045  0.000462)
 33:    426.37   0.002223   11.24  0.001627  ( 0.011699  0.037727 -0.008196)
 34:    464.00   0.000109    0.55  0.000073  ( 0.006602  0.002317 -0.004933)
 35:    486.66   0.000121    0.61  0.000078  (-0.002228  0.000294 -0.008529)
 36:    490.43   0.002045   10.34  0.001301  ( 0.029132  0.004116 -0.020876)
 37:    539.82   0.003515   17.77  0.002032  (-0.026128 -0.001713 -0.036696)
 38:    541.37   0.003534   17.86  0.002037  ( 0.012198 -0.042848 -0.007220)
 39:    589.63   0.000015    0.08  0.000008  (-0.000973  0.002413  0.001089)
 40:    603.38   0.000647    3.27  0.000335  ( 0.003366  0.017736 -0.002984)
 41:    620.00   0.000006    0.03  0.000003  (-0.001141  0.000809  0.001111)
 42:    620.89   0.000023    0.11  0.000011  (-0.000266 -0.000644 -0.003300)
 43:    640.42   0.010074   50.91  0.004909  (-0.042654  0.035215  0.043003)
 44:    641.63   0.003983   20.13  0.001937  (-0.032720  0.009135 -0.027982)
 45:    706.19   0.015364   77.64  0.006789  (-0.061334 -0.033598  0.043572)
 46:    800.61   0.020798  105.10  0.008107  ( 0.040659 -0.077137 -0.022435)
 47:    801.50   0.006416   32.42  0.002498  ( 0.010065 -0.039792 -0.028519)
 48:    811.08   0.007699   38.91  0.002962  (-0.019936  0.048598  0.014250)
 49:    819.07   0.012389   62.61  0.004720  ( 0.038291  0.050448 -0.026625)
 50:    823.22   0.009589   48.46  0.003635  ( 0.012541  0.058381 -0.008318)
 51:    839.38   0.000006    0.03  0.000002  ( 0.000709 -0.001272 -0.000387)
 52:    849.69   0.002421   12.23  0.000889  (-0.009453 -0.027120  0.008010)
 53:    853.65   0.000034    0.17  0.000012  ( 0.000562 -0.003443 -0.000556)
 54:    854.84   0.000044    0.22  0.000016  ( 0.002487 -0.003163 -0.000203)
 55:    866.98   0.001321    6.67  0.000475  ( 0.012826 -0.001634  0.017555)
 56:    905.79   0.000029    0.15  0.000010  (-0.002240  0.000965 -0.001987)
 57:    912.90   0.000032    0.16  0.000011  ( 0.000079 -0.002345 -0.002296)
 58:    930.96   0.000352    1.78  0.000118  ( 0.004051  0.009947 -0.001672)
 59:    933.79   0.000618    3.12  0.000207  (-0.005211 -0.012950  0.003432)
 60:   1025.86   0.001151    5.81  0.000350  ( 0.011661  0.001860  0.014512)
 61:   1032.81   0.002263   11.43  0.000684  ( 0.015205  0.014715 -0.015360)
 62:   1036.38   0.002456   12.41  0.000739  ( 0.018521  0.000644  0.019900)
 63:   1045.65   0.002107   10.65  0.000629  (-0.018793  0.009616  0.013532)
 64:   1073.49   0.000084    0.42  0.000024  (-0.002354 -0.002600  0.003476)
 65:   1075.27   0.000008    0.04  0.000002  ( 0.000020  0.001259  0.000770)
 66:   1075.67   0.000007    0.04  0.000002  ( 0.001379  0.000434  0.000103)
 67:   1078.61   0.001165    5.89  0.000337  (-0.005818 -0.017261  0.002291)
 68:   1158.69   0.000027    0.14  0.000007  (-0.000542 -0.002633  0.000422)
 69:   1159.12   0.000007    0.04  0.000002  (-0.000271 -0.001338  0.000088)
 70:   1285.38   0.000001    0.01  0.000000  ( 0.000120  0.000566 -0.000144)
 71:   1288.97   0.000000    0.00  0.000000  ( 0.000040  0.000024 -0.000108)
 72:   1383.29   0.000026    0.13  0.000006  ( 0.000690 -0.001918 -0.001279)
 73:   1388.91   0.000025    0.13  0.000006  ( 0.000648  0.002051 -0.000978)
 74:   1389.45   0.000005    0.03  0.000001  (-0.000351 -0.000776 -0.000667)
 75:   1395.68   0.004211   21.28  0.000942  (-0.012399 -0.027364  0.006248)
 76:   1460.51   0.002323   11.74  0.000496  ( 0.014814  0.004964  0.015884)
 77:   1471.83   0.000235    1.19  0.000050  (-0.004688 -0.004161  0.003242)
 78:   1475.41   0.000340    1.72  0.000072  ( 0.004915 -0.001015  0.006837)
 79:   1488.09   0.000592    2.99  0.000124  ( 0.009086 -0.002699 -0.005849)
 80:   2064.30   0.158514  801.06  0.023963  ( 0.014577 -0.153202 -0.016720)
 81:   2076.81   0.150085  758.47  0.022552  ( 0.090725 -0.004427  0.119588)
 82:   2126.91   0.273481  1382.06  0.040126  ( 0.159093  0.024302 -0.119266)
 83:   3241.83   0.000056    0.28  0.000005  (-0.002231 -0.000642 -0.000163)
 84:   3244.23   0.000009    0.05  0.000001  ( 0.000733  0.000026 -0.000578)
 85:   3255.89   0.000023    0.12  0.000002  ( 0.000273  0.001022 -0.001052)
 86:   3257.05   0.000151    0.77  0.000015  ( 0.002911  0.001407 -0.002014)
 87:   3258.03   0.000045    0.23  0.000004  (-0.001334 -0.001523  0.000481)
 88:   3261.12   0.000097    0.49  0.000009  (-0.001546  0.000038 -0.002631)
 89:   3269.82   0.000200    1.01  0.000019  ( 0.002227 -0.000101  0.003760)
 90:   3271.64   0.000194    0.98  0.000018  (-0.002995  0.002249  0.002113)
 91:   3271.78   0.000151    0.76  0.000014  ( 0.002746 -0.002040 -0.001632)
 92:   3282.28   0.000026    0.13  0.000002  (-0.000759 -0.001283  0.000525)

* The epsilon (eps) is given for a Dirac delta lineshape.
** The dipole moment derivative (T) already includes vibrational overlap.

The first frequency considered to be a vibration is 6
The total number of vibrations considered is 87


--------------------------
THERMOCHEMISTRY AT 298.15K
--------------------------

Temperature         ...   298.15 K
Pressure            ...     1.00 atm
Total Mass          ...   450.68 AMU
Quasi RRHO          ...     True
Cut-Off Frequency   ...     1.00 cm^-1

Throughout the following assumptions are being made:
  (1) The electronic state is orbitally nondegenerate
      but the spin degeneracy is treated
  (2) There are no thermally accessible electronically excited states
  (3) Hindered rotations indicated by low frequency modes are not
      treated as such but are treated as vibrations and this may
      cause some error
  (4) All equations used are the standard statistical mechanics
      equations for an ideal gas
  (5) All vibrations are strictly harmonic

freq.       9.70  E(vib)   ...       0.58 
freq.      13.97  E(vib)   ...       0.57 
freq.      18.08  E(vib)   ...       0.57 
freq.      33.89  E(vib)   ...       0.55 
freq.      37.47  E(vib)   ...       0.54 
freq.      75.47  E(vib)   ...       0.49 
freq.      87.01  E(vib)   ...       0.48 
freq.      89.99  E(vib)   ...       0.47 
freq.      94.52  E(vib)   ...       0.47 
freq.     108.10  E(vib)   ...       0.45 
freq.     116.62  E(vib)   ...       0.44 
freq.     122.69  E(vib)   ...       0.43 
freq.     128.26  E(vib)   ...       0.43 
freq.     129.60  E(vib)   ...       0.43 
freq.     154.89  E(vib)   ...       0.40 
freq.     200.42  E(vib)   ...       0.35 
freq.     255.18  E(vib)   ...       0.30 
freq.     264.02  E(vib)   ...       0.29 
freq.     264.67  E(vib)   ...       0.29 
freq.     287.05  E(vib)   ...       0.27 
freq.     299.78  E(vib)   ...       0.26 
freq.     302.56  E(vib)   ...       0.26 
freq.     317.88  E(vib)   ...       0.25 
freq.     333.51  E(vib)   ...       0.24 
freq.     370.17  E(vib)   ...       0.21 
freq.     405.15  E(vib)   ...       0.19 
freq.     424.80  E(vib)   ...       0.18 
freq.     426.37  E(vib)   ...       0.18 
freq.     464.00  E(vib)   ...       0.16 
freq.     486.66  E(vib)   ...       0.15 
freq.     490.43  E(vib)   ...       0.15 
freq.     539.82  E(vib)   ...       0.12 
freq.     541.37  E(vib)   ...       0.12 
freq.     589.63  E(vib)   ...       0.10 
freq.     603.38  E(vib)   ...       0.10 
freq.     620.00  E(vib)   ...       0.09 
freq.     620.89  E(vib)   ...       0.09 
freq.     640.42  E(vib)   ...       0.09 
freq.     641.63  E(vib)   ...       0.09 
freq.     706.19  E(vib)   ...       0.07 
freq.     800.61  E(vib)   ...       0.05 
freq.     801.50  E(vib)   ...       0.05 
freq.     811.08  E(vib)   ...       0.05 
freq.     819.07  E(vib)   ...       0.05 
freq.     823.22  E(vib)   ...       0.05 
freq.     839.38  E(vib)   ...       0.04 
freq.     849.69  E(vib)   ...       0.04 
freq.     853.65  E(vib)   ...       0.04 
freq.     854.84  E(vib)   ...       0.04 
freq.     866.98  E(vib)   ...       0.04 
freq.     905.79  E(vib)   ...       0.03 
freq.     912.90  E(vib)   ...       0.03 
freq.     930.96  E(vib)   ...       0.03 
freq.     933.79  E(vib)   ...       0.03 
freq.    1025.86  E(vib)   ...       0.02 
freq.    1032.81  E(vib)   ...       0.02 
freq.    1036.38  E(vib)   ...       0.02 
freq.    1045.65  E(vib)   ...       0.02 
freq.    1073.49  E(vib)   ...       0.02 
freq.    1075.27  E(vib)   ...       0.02 
freq.    1075.67  E(vib)   ...       0.02 
freq.    1078.61  E(vib)   ...       0.02 
freq.    1158.69  E(vib)   ...       0.01 
freq.    1159.12  E(vib)   ...       0.01 
freq.    1285.38  E(vib)   ...       0.01 
freq.    1288.97  E(vib)   ...       0.01 
freq.    1383.29  E(vib)   ...       0.00 
freq.    1388.91  E(vib)   ...       0.00 
freq.    1389.45  E(vib)   ...       0.00 
freq.    1395.68  E(vib)   ...       0.00 
freq.    1460.51  E(vib)   ...       0.00 
freq.    1471.83  E(vib)   ...       0.00 
freq.    1475.41  E(vib)   ...       0.00 
freq.    1488.09  E(vib)   ...       0.00 
freq.    2064.30  E(vib)   ...       0.00 
freq.    2076.81  E(vib)   ...       0.00 
freq.    2126.91  E(vib)   ...       0.00 
freq.    3241.83  E(vib)   ...       0.00 
freq.    3244.23  E(vib)   ...       0.00 
freq.    3255.89  E(vib)   ...       0.00 
freq.    3257.05  E(vib)   ...       0.00 
freq.    3258.03  E(vib)   ...       0.00 
freq.    3261.12  E(vib)   ...       0.00 
freq.    3269.82  E(vib)   ...       0.00 
freq.    3271.64  E(vib)   ...       0.00 
freq.    3271.78  E(vib)   ...       0.00 
freq.    3282.28  E(vib)   ...       0.00 

------------
INNER ENERGY
------------

The inner energy is: U= E(el) + E(ZPE) + E(vib) + E(rot) + E(trans)
    E(el)   - is the total energy from the electronic structure calculation
              = E(kin-el) + E(nuc-el) + E(el-el) + E(nuc-nuc)
    E(ZPE)  - the the zero temperature vibrational energy from the frequency calculation
    E(vib)  - the the finite temperature correction to E(ZPE) due to population
              of excited vibrational states
    E(rot)  - is the rotational thermal energy
    E(trans)- is the translational thermal energy

Summary of contributions to the inner energy U:
Electronic energy                ...  -5689.82740745 Eh
Zero point energy                ...      0.20045699 Eh     125.79 kcal/mol
Thermal vibrational correction   ...      0.02023482 Eh      12.70 kcal/mol
Thermal rotational correction    ...      0.00141627 Eh       0.89 kcal/mol
Thermal translational correction ...      0.00141627 Eh       0.89 kcal/mol
-----------------------------------------------------------------------
Total thermal energy                  -5689.60388310 Eh


Summary of corrections to the electronic energy:
(perhaps to be used in another calculation)
Total thermal correction                  0.02306737 Eh      14.47 kcal/mol
Non-thermal (ZPE) correction              0.20045699 Eh     125.79 kcal/mol
-----------------------------------------------------------------------
Total correction                          0.22352436 Eh     140.26 kcal/mol


--------
ENTHALPY
--------

The enthalpy is H = U + kB*T
                kB is Boltzmann's constant
Total thermal energy              ...  -5689.60388310 Eh 
Thermal Enthalpy correction       ...      0.00094421 Eh       0.59 kcal/mol
-----------------------------------------------------------------------
Total Enthalpy                    ...  -5689.60293889 Eh


Note: Only C1 symmetry has been detected, increase convergence thresholds 
      if your molecule has a higher symmetry. Symmetry factor of 1.0 is   
      used for the rotational entropy correction. 
 

Note: Rotational entropy computed according to Herzberg 
Infrared and Raman Spectra, Chapter V,1, Van Nostrand Reinhold, 1945 
Point Group:  C1, Symmetry Number:   1  
Rotational constants in cm-1:     0.008681     0.008422     0.005536 

Vibrational entropy computed according to the QRRHO of S. Grimme
Chem.Eur.J. 2012 18 9955 using a reference frequency of 100.0 cm-1


-------
ENTROPY
-------

The entropy contributions are T*S = T*(S(el)+S(vib)+S(rot)+S(trans))
     S(el)   - electronic entropy
     S(vib)  - vibrational entropy
     S(rot)  - rotational entropy
     S(trans)- translational entropy
The entropies will be listed as multiplied by the temperature to get
units of energy

Electronic entropy                ...      0.00130891 Eh      0.82 kcal/mol
Vibrational entropy               ...      0.03792570 Eh     23.80 kcal/mol
Rotational entropy                ...      0.01646003 Eh     10.33 kcal/mol
Translational entropy             ...      0.02100356 Eh     13.18 kcal/mol
-----------------------------------------------------------------------
Final entropy term                ...      0.07669821 Eh     48.13 kcal/mol

In case the symmetry of your molecule has not been determined correctly
or in case you have a reason to use a different symmetry number we print 
out the resulting rotational entropy values for sn=1,12:

 non-linear molecules -----------------------------------
|  sn= 1 | S(rot)=       0.01646003 Eh     10.33 kcal/mol|
|  sn= 2 | S(rot)=       0.01580558 Eh      9.92 kcal/mol|
|  sn= 3 | S(rot)=       0.01542274 Eh      9.68 kcal/mol|
|  sn= 4 | S(rot)=       0.01515112 Eh      9.51 kcal/mol|
|  sn= 5 | S(rot)=       0.01494043 Eh      9.38 kcal/mol|
|  sn= 6 | S(rot)=       0.01476829 Eh      9.27 kcal/mol|
|  sn= 7 | S(rot)=       0.01462274 Eh      9.18 kcal/mol|
|  sn= 8 | S(rot)=       0.01449666 Eh      9.10 kcal/mol|
|  sn= 9 | S(rot)=       0.01438546 Eh      9.03 kcal/mol|
|  sn=10 | S(rot)=       0.01428598 Eh      8.96 kcal/mol|
|  sn=11 | S(rot)=       0.01419599 Eh      8.91 kcal/mol|
|  sn=12 | S(rot)=       0.01411383 Eh      8.86 kcal/mol|
 linear molecules ---------------------------------------
|  Dinfh | S(rot)=       0.01023223 Eh      6.42 kcal/mol|
|  Cinfv | S(rot)=       0.01088668 Eh      6.83 kcal/mol|
 --------------------------------------------------------


-------------------
GIBBS FREE ENERGY
-------------------

The Gibbs free energy is G = H - T*S

Total enthalpy                    ...  -5689.60293889 Eh 
Total entropy correction          ...     -0.07669821 Eh    -48.13 kcal/mol
-----------------------------------------------------------------------
Final Gibbs free energy         ...  -5689.67963710 Eh

For completeness - the Gibbs free energy minus the electronic energy
G-E(el)                           ...      0.14777035 Eh     92.73 kcal/mol


Maximum memory used throughout the entire PROP-calculation: 693.0 MB

--------------------------------
SUGGESTED CITATIONS FOR THIS RUN
--------------------------------

Below you find a list of papers that are relevant to this ORCA run
We neither can nor want to force you to cite these papers, but we appreciate if you do
You receive ORCA, which is the product of decades of hard work by many enthusiastic individuals, for free
The only thing we kindly ask in return is that you cite our papers,
We deeply appreciate it, if you show your appreciation for ORCA by not just citing the generic ORCA reference.

Please note that relegating all ORCA citations to the supporting information does *not* help us.
SI sections are not indexed - citations you put there will not count into any citation statistics
But we need these citations in order to attract the funding resources that allow us to do what we are doing

Therefore, if you are a happy ORCA user, please consider citing a few of the papers listed below in the main body of your paper

In addition to the list printed below, the program has created the file AXUMEL-S2.bibtex that contains the list in bibtex format
You can import this file easily into all common literature databanks and citation aid programs


List of essential papers. We consider these as the minimum necessary citations

  1. Neese,F.
     Software update: the ORCA program system, version 5.0
     WIRES Comput. Molec. Sci., 2022 12(1)e1606
     doi.org/10.1002/wcms.1606

List of papers to cite with high priority. The work reported in these papers was absolutely
necessary for this run to complete.
Our perspective: the developers of density functionals and basis sets usually get cited in chemistry papers
Good! But without the algorithms to do something with them, the functionals or basis sets would not do anything.
Hence, in our opinion, the algorithm design and method developments papers are equally worthy of getting cited

  1. Neese,F.
     An improvement of the resolution of the identity approximation for the formation of the Coulomb matrix
     J. Comp. Chem., 2003 24(14)1740-1747
     doi.org/10.1002/jcc.10318
  2. Neese,F.; Wennmohs,F.; Hansen,A.; Becker,U.
     Efficient, approximate and parallel Hartree-Fock and hybrid DFT calculations. A 'chain-of-spheres' algorithm for the Hartree-Fock exchange
     Chem. Phys., 2009 356(1-3)98-109
     doi.org/10.1016/j.chemphys.2008.10.036
  3. Bykov,D.; Petrenko,T.; Izsak,R.; Kossmann,S.; Becker,U.; Valeev,E.; Neese,F.
     Efficient implementation of the analytic second derivatives of Hartree-Fock and hybrid DFT energies: a detailed analysis of different approximations
     Molec. Phys., 2015 113 1961-1977
     doi.org/10.1080/00268976.2015.1025114
  4. Helmich-Paris,B.; de Souza,B.; Neese,F.; Izsák,R.
     An improved chain of spheres for exchange algorithm
     J. Chem. Phys., 2021 155 104109
     doi.org/doi: 10.1063/5.0058766.
  5. Neese,F.
     The SHARK Integral Generation and Digestion System
     J. Comp. Chem., 2022  1-16
     doi.org/10.1002/jcc.26942

List of suggested additional citations. These are papers that are important in the 'surrounding' of 
of this run, or papers that preceded the highly important papers. If you like your results we are grateful for a citation.

  1. Izsak,R.; Neese,F.
     An overlap fitted chain of spheres exchange method
     J. Chem. Phys., 2011 135 144105
     doi.org/10.1063/1.3646921
  2. Izsak,R.; Hansen,A.; Neese,F.
     The resolution of identity and chain of spheres approximations for the LPNO-CCSD singles Fock term
     Molec. Phys., 2012 110 2413-2417
     doi.org/10.1080/00268976.2012.687466
  3. Neese,F.
     The ORCA program system
     WIRES Comput. Molec. Sci., 2012 2(1)73-78
     doi.org/10.1002/wcms.81
  4. Izsak,R.; Neese,F.; Klopper,W.
     Robust fitting techniques in the chain of spheres approximation to the Fock exchange: The role of the complementary space
     J. Chem. Phys., 2013 139 
     doi.org/10.1063/1.4819264
  5. Neese,F.
     Software update: the ORCA program system, version 4.0
     WIRES Comput. Molec. Sci., 2018 8(1)1-6
     doi.org/10.1002/wcms.1327
  6. Neese,F.; Wennmohs,F.; Becker,U.; Riplinger,C.
     The ORCA quantum chemistry program package
     J. Chem. Phys., 2020 152 Art. No. L224108
     doi.org/10.1063/5.0004608

List of optional additional citations

  1. Neese,F.
     Approximate second-order SCF convergence for spin unrestricted wavefunctions
     Chem. Phys. Lett., 2000 325(1-3)93-98
     doi.org/10.1016/s0009-2614(00)00662-x

Timings for individual modules:

Sum of individual times          ...    12710.311 sec (= 211.839 min)
Startup calculation              ...      327.997 sec (=   5.467 min)   2.6 %
SCF iterations                   ...     7657.409 sec (= 127.623 min)  60.2 %
Property integrals               ...     1038.530 sec (=  17.309 min)   8.2 %
SCF Response                     ...     1739.266 sec (=  28.988 min)  13.7 %
Property calculations            ...      423.396 sec (=   7.057 min)   3.3 %
SCF Gradient evaluation          ...     1520.841 sec (=  25.347 min)  12.0 %
Geometry relaxation              ...        2.871 sec (=   0.048 min)   0.0 %
                             ****ORCA TERMINATED NORMALLY****
TOTAL RUN TIME: 0 days 3 hours 32 minutes 56 seconds 657 msec
