
                                 *****************
                                 * O   R   C   A *
                                 *****************

                                            #,                                       
                                            ###                                      
                                            ####                                     
                                            #####                                    
                                            ######                                   
                                           ########,                                 
                                     ,,################,,,,,                         
                               ,,#################################,,                 
                          ,,##########################################,,             
                       ,#########################################, ''#####,          
                    ,#############################################,,   '####,        
                  ,##################################################,,,,####,       
                ,###########''''           ''''###############################       
              ,#####''   ,,,,##########,,,,          '''####'''          '####       
            ,##' ,,,,###########################,,,                        '##       
           ' ,,###''''                  '''############,,,                           
         ,,##''                                '''############,,,,        ,,,,,,###''
      ,#''                                            '''#######################'''  
     '                                                          ''''####''''         
             ,#######,   #######,   ,#######,      ##                                
            ,#'     '#,  ##    ##  ,#'     '#,    #''#        ,####,   ,####,        
            ##       ##  ##   ,#'  ##            #'  '#       #'       #'  '#        
            ##       ##  #######   ##           ,######,      #####,   #    #        
            '#,     ,#'  ##    ##  '#,     ,#' ,#      #,     #,   #   #,  ,#        
             '#######'   ##     ##  '#######'  #'      '#     '####' # '####'        



                #########################################################
                #                        -***-                          #
                #          Department of theory and spectroscopy        #
                #                                                       #
                #                      Frank Neese                      #
                #                                                       #
                #     Directorship, Architecture, Infrastructure        #
                #                    SHARK, DRIVERS                     #
                #        Core code/Algorithms in most modules           #
                #                                                       #
                #        Max Planck Institute fuer Kohlenforschung      #
                #                Kaiser Wilhelm Platz 1                 #
                #                 D-45470 Muelheim/Ruhr                 #
                #                      Germany                          #
                #                                                       #
                #                  All rights reserved                  #
                #                        -***-                          #
                #########################################################


                         Program Version 6.0.1  -  RELEASE   -


 With contributions from (in alphabetic order):
[Max-Planck-Institut fuer Kohlenforschung]                               
  Daniel Aravena         : Magnetic Suceptibility                        
  Michael Atanasov       : Ab Initio Ligand Field Theory (pilot matlab implementation)
  Alexander A. Auer      : GIAO ZORA, VPT2 properties, NMR spectrum      
  Ute Becker             : All parallelization in ORCA, NUMFREQ, NUMCALC 
  Giovanni Bistoni       : ED, misc. LED, open-shell LED, HFLD           
  Martin Brehm           : Molecular dynamics                            
  Dmytro Bykov           : pre 5.0 version of the SCF Hessian            
  Marcos Casanova-Páez   : Triplet and SCS-CIS(D). UHF-(DLPNO)-IP/EA/STEOM-CCSD. UHF-CVS-IP/STEOM-CCSD   
  Vijay G. Chilkuri      : MRCI spin determinant printing, contributions to CSF-ICE 
  Pauline Colinet        : FMM embedding                                 
  Dipayan Datta          : RHF DLPNO-CCSD density                        
  Achintya Kumar Dutta   : EOM-CC, STEOM-CC                              
  Nicolas Foglia         : Exact transition moments, OPA infrastructure, MCD improvements    
  Dmitry Ganyushin       : Spin-Orbit,Spin-Spin,Magnetic field MRCI      
  Miquel Garcia-Rates    : C-PCM and meta-GGA Hessian, CCSD/C-PCM, Gaussian charge scheme 
  Tiago L. C. Gouveia    : GS-ROHF, GS-ROCIS                             
  Yang Guo               : DLPNO-NEVPT2, F12-NEVPT2, CIM, IAO-localization        
  Andreas Hansen         : Spin unrestricted coupled pair/coupled cluster methods 
  Ingolf Harden          : AUTO-CI MPn and infrastructure                
  Benjamin Helmich-Paris : MC-RPA, TRAH-(SCF,CASSCF), AVAS, COSX integrals, SCF dyn. polar. 
  Lee Huntington         : MR-EOM, pCC                                   
  Robert Izsak           : Overlap fitted RIJCOSX, COSX-SCS-MP3, EOM     
  Riya Kayal             : Wick's Theorem for AUTO-CI, AUTO-CI UHF-CCSDT 
  Emily Kempfer          : AUTO-CI, RHF CISDT and CCSDT                  
  Christian Kollmar      : KDIIS, OOCD, Brueckner-CCSD(T), CCSD density, CASPT2, CASPT2-K, improved NEVPT2 
  Axel Koslowski         : Symmetry handling                             
  Simone Kossmann        : meta-GGA functionals, TD-DFT gradient, OOMP2, (MP2 Hessian; deprecated post 5.0) 
  Lucas Lang             : DCDCAS                                        
  Marvin Lechner         : AUTO-CI (C++ implementation), FIC-MRCC        
  Spencer Leger          : CASSCF response                               
  Dagmar Lenk            : GEPOL surface, SMD, ORCA-2-JSON               
  Dimitrios Liakos       : Extrapolation schemes; Compound Job, initial MDCI parallelization 
  Dimitrios Manganas     : Further ROCIS development; embedding schemes. LFT, Crystal Embedding 
  Dimitrios Pantazis     : SARC Basis sets                               
  Anastasios Papadopoulos: AUTO-CI, single reference methods and gradients 
  Taras Petrenko         : pre 6.0 DFT Hessian and TD-DFT gradient, (ASA, deprecated), ECA, 1-Electron XAS/XES, NRVS 
  Peter Pinski           : DLPNO-MP2, DLPNO-MP2 Gradient                 
  Christoph Reimann      : Effective Core Potentials                     
  Marius Retegan         : Local ZFS, SOC                                
  Christoph Riplinger    : Optimizer, TS searches, QM/MM, DLPNO-CCSD(T), (RO)-DLPNO pert. Triples 
  Michael Roemelt        : Original ROCIS implementation                 
  Masaaki Saitow         : Open-shell DLPNO-CCSD energy and density      
  Barbara Sandhoefer     : DKH picture change effects                    
  Kantharuban Sivalingam : CASSCF convergence/infrastructure, NEVPT2 and variants, FIC-MRCI 
  Bernardo de Souza      : ESD, SOC TD-DFT                               
  Georgi L. Stoychev     : AutoAux, RI-MP2 NMR, DLPNO-MP2 response, X2C  
  Van Anh Tran           : RI-MP2 g-tensors                              
  Willem Van den Heuvel  : Paramagnetic NMR                              
  Zikuan Wang            : NOTCH, Electric field optimization            
  Frank Wennmohs         : Technical directorship and infrastructure     
  Hang Xu                : AUTO-CI-Response properties                   
                                                                         
[FACCTs GmbH]                                                            
  Markus Bursch, Miquel Garcia-Rates, Christoph Riplinger, Bernardo de Souza, Georgi L. Stoychev 
                                                                 
  APM, Basis sets (HGBS, AHGBS, def-TZVP (Ac-Lr), def2-XVPD (La-Lu)), CI-OPT, improved COSX, DLPNO-Multilevel,           
  DOCKER, DRACO, updates on ESD, GOAT, IRC, LR-CPCM, MBIS, meta-GGA TD-DFT gradient, ML-optimized integration grids, 
  MM, NACMEs, nearIR, NEB, NEB-TS, NL-DFT gradient (VV10), 2- and 3-layer-ONIOM, interface openCOSMO-RS, QMMM,   
  Crystal-QMMM, SF, symmetry and pop. for TD-DFT, r2SCAN hybrids, SOLVATOR                                   
                                                                         
[Other institutions]                                                     
  V. Asgeirsson          : NEB                                           
  Christoph Bannwarth    : sTDA-DFT, sTD-DFT, PBEh-3c, B97-3c, D3        
  Sebastian Ehlert       : rSCAN, r2SCAN, r2SCAN-3c, D4, dhf basis sets  
  Marvin Friede          : D4 for Fr, Ra, Ac-Lr                          
  Lars Goerigk           : TD-DFT with DH, B97 family of functionals     
  Stefan Grimme          : VdW corrections, initial TS optimization, DFT functionals, gCP, sTDA/sTD-DF 
  Waldemar Hujo          : DFT-NL                                        
  H. Jonsson             : NEB                                           
  Holger Kruse           : gCP                                           
  Marcel Mueller         : wB97X-3c, vDZP basis set                      
  Hagen Neugebauer       : wr2SCAN                                       
  Tobias Risthaus        : range-separated hybrid DFT                    
  Lukas Wittmann         : regularized MP2, r2SCAN double-hybrids, wr2SCAN        
                                                                         
We gratefully acknowledge several colleagues who have allowed us to      
interface, adapt or use parts of their codes:                            
  Ed Valeev, F. Pavosevic, A. Kumar             : LibInt (2-el integral package), F12 methods 
  Garnet Chan, S. Sharma, J. Yang, R. Olivares  : DMRG                   
  Ulf Ekstrom                                   : XCFun DFT Library      
  Mihaly Kallay                                 : mrcc  (arbitrary order and MRCC methods)
  Frank Weinhold                                : gennbo (NPA and NBO analysis)           
  Simon Mueller                                 : openCOSMO-RS                            
  Christopher J. Cramer and Donald G. Truhlar   : smd solvation model                     
  S Lehtola, MJT Oliveira, MAL Marques          : LibXC Library                           
  Liviu Ungur et al                             : ANISO software                          


 Your calculation uses the libint2 library for the computation of 2-el integrals
 For citations please refer to: http://libint.valeyev.net

 Your ORCA version has been built with support for libXC version: 6.2.2
 For citations please refer to: https://libxc.gitlab.io

 This ORCA versions uses:
   CBLAS   interface :  Fast vector & matrix operations
   LAPACKE interface :  Fast linear algebra routines
   SCALAPACK package :  Parallel linear algebra routines
   Shared memory     :  Shared parallel matrices
   BLAS/LAPACK       :  OpenBLAS 0.3.27  USE64BITINT DYNAMIC_ARCH NO_AFFINITY Cooperlake SINGLE_THREADED
        Core in use  :  Cooperlake
   Copyright (c) 2011-2014, The OpenBLAS Project


NOTE: MaxCore=3600 MB was set to SCF,MP2,MDCI,CIPSI,MRCI and CIS
      => If you want to overwrite this, your respective input block should be placed after the MaxCore statement
Warning: RI is on but no J-basis has been assigned. Assigning Def2/J (nothing to worry about!)
================================================================================

----- Orbital basis set information -----
Your calculation utilizes the basis: def2-TZVP
   F. Weigend and R. Ahlrichs, Phys. Chem. Chem. Phys. 7, 3297 (2005).

----- AuxJ basis set information -----
Your calculation utilizes the auxiliary basis: def2/J
   F. Weigend, Phys. Chem. Chem. Phys. 8, 1057 (2006).

================================================================================
                                        WARNINGS
                       Please study these warnings very carefully!
================================================================================


WARNING: your system is open-shell and RHF/RKS was chosen
  ===> : WILL SWITCH to UHF/UKS


WARNING: Geometry Optimization
  ===> : Switching off AutoStart
         For restart on a previous wavefunction, please use MOREAD

================================================================================
                                       INPUT FILE
================================================================================
NAME = BUBGEL-S6.inp
|  1> ! PBE0 def2-TZVP  Opt Freq DEFGRID3
|  2> 
|  3> %maxcore 3600
|  4> 
|  5> %pal
|  6>     nprocs 16
|  7> end
|  8> 
|  9> *xyz 0 4
| 10> Mn 14.7209 14.1901 -2.2307
| 11> Si 16.3028 14.7951 1.171
| 12> Si 14.4416 17.7019 -0.7911
| 13> Si 11.2614 12.8494 -0.8087
| 14> Si 15.8956 10.7315 -3.3493
| 15> Si 18.274 13.8912 -3.6448
| 16> Si 13.0186 15.2699 -5.5562
| 17> C 14.8182 14.7893 0.04
| 18> C 14.1096 15.8672 -0.6405
| 19> C 12.8816 15.2998 -1.0925
| 20> H 12.2167 15.7794 -1.5734
| 21> C 12.7714 13.9314 -0.7346
| 22> C 13.9811 13.6468 -0.0372
| 23> H 14.2 12.7992 0.3299
| 24> C 15.5384 12.5206 -3.7368
| 25> C 16.4059 13.6856 -3.8202
| 26> C 15.6474 14.7672 -4.3481
| 27> C 14.3114 14.3233 -4.6183
| 28> C 14.2834 12.9502 -4.2293
| 29> H 13.5163 12.3926 -4.2938
| 30> C 15.8243 15.4734 2.8428
| 31> H 15.0811 14.9506 3.206
| 32> H 15.5501 16.4095 2.7483
| 33> H 16.5916 15.4175 3.4488
| 34> C 16.8509 13.0237 1.4473
| 35> H 17.6462 13.0136 2.02
| 36> H 17.0633 12.6093 0.5856
| 37> H 16.1295 12.5221 1.8828
| 38> C 17.7571 15.7299 0.4559
| 39> H 17.4889 16.653 0.2613
| 40> H 18.0504 15.2946 -0.3706
| 41> H 18.4938 15.7348 1.1026
| 42> C 12.8317 18.5419 -1.2027
| 43> H 12.9643 19.5126 -1.2212
| 44> H 12.1611 18.3152 -0.5226
| 45> H 12.5189 18.2392 -2.0811
| 46> C 15.682 18.09 -2.1237
| 47> H 15.8061 19.0613 -2.1831
| 48> H 15.3554 17.7499 -2.9836
| 49> H 16.5373 17.6628 -1.9088
| 50> C 15.0256 18.4756 0.8024
| 51> H 15.8788 18.0761 1.0674
| 52> H 14.3604 18.3174 1.5048
| 53> H 15.1413 19.4389 0.6746
| 54> C 11.2111 11.8899 0.795
| 55> H 10.3517 11.4252 0.871
| 56> H 11.3154 12.5065 1.5493
| 57> H 11.9388 11.2331 0.8061
| 58> C 9.776 13.9341 -0.984
| 59> H 8.9635 13.3979 -0.8654
| 60> H 9.772 14.3407 -1.8754
| 61> H 9.8028 14.6378 -0.3021
| 62> C 11.2744 11.6151 -2.1997
| 63> H 12.0972 11.0834 -2.1571
| 64> H 11.2387 12.0887 -3.0578
| 65> H 10.4992 11.023 -2.12
| 66> C 17.3729 10.1274 -4.2957
| 67> H 18.1715 10.6097 -3.9955
| 68> H 17.2349 10.2858 -5.2519
| 69> H 17.4896 9.1665 -4.1363
| 70> C 14.4469 9.6906 -3.9176
| 71> H 14.6497 8.742 -3.7768
| 72> H 14.2842 9.8501 -4.872
| 73> H 13.6471 9.9328 -3.4043
| 74> C 16.1387 10.4091 -1.5326
| 75> H 16.9162 10.9136 -1.2138
| 76> H 16.2883 9.4525 -1.388
| 77> H 15.3409 10.6946 -1.0415
| 78> C 19.0046 12.9245 -2.2535
| 79> H 18.8308 11.9703 -2.3925
| 80> H 18.601 13.2125 -1.4084
| 81> H 19.9723 13.0784 -2.222
| 82> C 19.0735 13.3872 -5.2538
| 83> H 20.0453 13.4828 -5.1796
| 84> H 18.7431 13.9609 -5.9765
| 85> H 18.8505 12.4529 -5.4502
| 86> C 18.6523 15.7046 -3.4099
| 87> H 19.6211 15.8286 -3.3376
| 88> H 18.2204 16.0252 -2.5908
| 89> H 18.3129 16.2106 -4.1771
| 90> C 11.3403 14.6132 -5.1092
| 91> H 10.6514 15.2343 -5.4261
| 92> H 11.274 14.5194 -4.1363
| 93> H 11.2089 13.7375 -5.5318
| 94> C 13.3701 15.1316 -7.3553
| 95> H 12.7013 15.6409 -7.8575
| 96> H 13.3307 14.1888 -7.6221
| 97> H 14.2628 15.4868 -7.5406
| 98> C 13.0843 17.0614 -5.1222
| 99> H 13.949 17.4327 -5.3946
|100> H 12.9728 17.1668 -4.153
|101> H 12.3639 17.5355 -5.5873
|102> H 16.023 15.7748 -4.5201
|103> *
|104> 
|105>                          ****END OF INPUT****
================================================================================

                       *****************************
                       * Geometry Optimization Run *
                       *****************************

Geometry optimization settings:
Update method            Update   .... BFGS
Choice of coordinates    CoordSys .... (2022) Redundant Internals
Initial Hessian          InHess   .... Almloef's Model
Max. no of cycles        MaxIter  .... 279

Convergence Tolerances:
Energy Change            TolE     ....  5.0000e-06 Eh
Max. Gradient            TolMAXG  ....  3.0000e-04 Eh/bohr
RMS Gradient             TolRMSG  ....  1.0000e-04 Eh/bohr
Max. Displacement        TolMAXD  ....  4.0000e-03 bohr
RMS Displacement         TolRMSD  ....  2.0000e-03 bohr
Strict Convergence                .... False

------------------------------------------------------------------------------
                        ORCA OPTIMIZATION COORDINATE SETUP
------------------------------------------------------------------------------

The optimization will be done in redundant internal coordinates (2022)
Making redundant internal coordinates   ...  (2022 redundants) done
Evaluating the initial hessian          ...  (Almloef) done
Evaluating the coordinates              ...  done
Calculating the B-matrix                .... done
Calculating the G-matrix                .... done
Diagonalizing the G-matrix              .... done
Small eigenvalue found = 1.062e-02
Small eigenvalue found = 1.113e-02
Small eigenvalue found = 1.149e-02
Small eigenvalue found = 1.339e-02
Small eigenvalue found = 1.355e-02
Small eigenvalue found = 1.416e-02
Small eigenvalue found = 1.729e-02
Small eigenvalue found = 1.855e-02
Small eigenvalue found = 1.903e-02
Small eigenvalue found = 1.913e-02
Small eigenvalue found = 2.170e-02
Small eigenvalue found = 2.628e-02
Small eigenvalue found = 2.714e-02
Small eigenvalue found = 2.897e-02
Small eigenvalue found = 2.922e-02
The first mode is                       ....  415
The number of degrees of freedom        ....  273

    -----------------------------------------------------------------
                    Redundant Internal Coordinates


    -----------------------------------------------------------------
         Definition                    Initial Value    Approx d2E/dq
    -----------------------------------------------------------------
      1. B(C   7,Mn  0)                  2.3504         0.185582   
      2. B(C   7,Si  1)                  1.8663         0.471998   
      3. B(C   8,C   7)                  1.4584         0.485891   
      4. B(C   8,Mn  0)                  2.3906         0.160114   
      5. B(C   8,Si  2)                  1.8706         0.464725   
      6. B(C   9,Mn  0)                  2.4310         0.138022   
      7. B(C   9,C   8)                  1.4263         0.546866   
      8. B(H  10,C   9)                  0.9505         0.601245   
      9. B(C  11,C   9)                  1.4187         0.562243   
     10. B(C  11,Si  3)                  1.8591         0.484694   
     11. B(C  11,Mn  0)                  2.4710         0.119183   
     12. B(C  12,C  11)                  1.4250         0.549332   
     13. B(C  12,Mn  0)                  2.3778         0.167840   
     14. B(C  12,C   7)                  1.4185         0.562791   
     15. B(H  13,C  12)                  0.9493         0.603887   
     16. B(C  14,Si  4)                  1.8651         0.474143   
     17. B(C  14,Mn  0)                  2.3925         0.159037   
     18. B(C  15,C  14)                  1.4549         0.492258   
     19. B(C  15,Si  5)                  1.8875         0.436625   
     20. B(C  15,Mn  0)                  2.3707         0.172269   
     21. B(C  16,C  15)                  1.4226         0.554229   
     22. B(C  16,Mn  0)                  2.3822         0.165153   
     23. B(C  17,C  16)                  1.4335         0.532502   
     24. B(C  17,Si  6)                  1.8566         0.489159   
     25. B(C  17,Mn  0)                  2.4261         0.140539   
     26. B(C  18,C  17)                  1.4274         0.544563   
     27. B(C  18,C  14)                  1.4150         0.570036   
     28. B(C  18,Mn  0)                  2.3923         0.159125   
     29. B(H  19,C  18)                  0.9505         0.601073   
     30. B(C  20,Si  1)                  1.8665         0.471656   
     31. B(H  21,C  20)                  0.9786         0.542273   
     32. B(H  22,C  20)                  0.9800         0.539414   
     33. B(H  23,C  20)                  0.9793         0.540719   
     34. B(C  24,Si  1)                  1.8747         0.457675   
     35. B(H  25,C  24)                  0.9801         0.539221   
     36. B(H  26,C  24)                  0.9795         0.540457   
     37. B(H  27,C  24)                  0.9807         0.538120   
     38. B(C  28,Si  1)                  1.8709         0.464187   
     39. B(H  29,C  28)                  0.9808         0.537885   
     40. B(H  30,C  28)                  0.9791         0.541223   
     41. B(H  31,C  28)                  0.9803         0.538835   
     42. B(C  32,Si  2)                  1.8619         0.479706   
     43. B(H  33,C  32)                  0.9799         0.539632   
     44. B(H  34,C  32)                  0.9816         0.536156   
     45. B(H  35,C  32)                  0.9803         0.538748   
     46. B(C  36,Si  2)                  1.8615         0.480538   
     47. B(H  37,C  36)                  0.9810         0.537443   
     48. B(H  38,C  36)                  0.9807         0.538036   
     49. B(H  39,C  36)                  0.9799         0.539595   
     50. B(C  40,Si  2)                  1.8652         0.474010   
     51. B(H  41,C  40)                  0.9787         0.542074   
     52. B(H  42,C  40)                  0.9802         0.538924   
     53. B(H  43,C  40)                  0.9786         0.542186   
     54. B(C  44,Si  3)                  1.8695         0.466556   
     55. B(H  45,C  44)                  0.9799         0.539523   
     56. B(H  46,C  44)                  0.9798         0.539774   
     57. B(H  47,C  44)                  0.9803         0.538749   
     58. B(C  48,Si  3)                  1.8476         0.505594   
     59. B(H  49,C  48)                  0.9807         0.538067   
     60. B(H  50,C  48)                  0.9798         0.539885   
     61. B(H  51,C  48)                  0.9803         0.538908   
     62. B(C  52,Si  3)                  1.8597         0.483626   
     63. B(H  53,C  52)                  0.9806         0.538282   
     64. B(H  54,C  52)                  0.9808         0.537892   
     65. B(H  55,C  52)                  0.9787         0.541979   
     66. B(C  56,Si  4)                  1.8555         0.491106   
     67. B(H  57,C  56)                  0.9800         0.539316   
     68. B(H  58,C  56)                  0.9790         0.541386   
     69. B(H  59,C  56)                  0.9810         0.537440   
     70. B(C  60,Si  4)                  1.8722         0.461932   
     71. B(H  61,C  60)                  0.9802         0.539014   
     72. B(H  62,C  60)                  0.9812         0.537002   
     73. B(H  63,C  60)                  0.9807         0.537982   
     74. B(C  64,Si  4)                  1.8610         0.481296   
     75. B(H  65,C  64)                  0.9801         0.539150   
     76. B(H  66,C  64)                  0.9790         0.541467   
     77. B(H  67,C  64)                  0.9794         0.540654   
     78. B(C  68,Si  5)                  1.8450         0.510505   
     79. B(H  69,C  68)                  0.9798         0.539792   
     80. B(H  70,C  68)                  0.9798         0.539786   
     81. B(H  71,C  68)                  0.9804         0.538685   
     82. B(C  72,Si  5)                  1.8660         0.472525   
     83. B(H  73,C  72)                  0.9793         0.540790   
     84. B(H  74,C  72)                  0.9801         0.539219   
     85. B(H  75,C  72)                  0.9804         0.538586   
     86. B(C  76,Si  5)                  1.8673         0.470386   
     87. B(H  77,C  76)                  0.9794         0.540651   
     88. B(H  78,C  76)                  0.9799         0.539568   
     89. B(H  79,C  76)                  0.9797         0.539995   
     90. B(C  80,Si  6)                  1.8568         0.488813   
     91. B(H  81,C  80)                  0.9802         0.539035   
     92. B(H  82,C  80)                  0.9797         0.540092   
     93. B(H  83,C  80)                  0.9812         0.537086   
     94. B(C  84,Si  6)                  1.8383         0.523165   
     95. B(H  85,C  84)                  0.9792         0.540947   
     96. B(H  86,C  84)                  0.9806         0.538195   
     97. B(H  87,C  84)                  0.9785         0.542440   
     98. B(C  88,Si  6)                  1.8445         0.511449   
     99. B(H  89,C  88)                  0.9797         0.540048   
    100. B(H  90,C  88)                  0.9813         0.536903   
    101. B(H  91,C  88)                  0.9798         0.539751   
    102. B(H  92,C  16)                  1.0890         0.361428   
    103. A(C   8,Mn  0,C  11)           57.9243         0.322257   
    104. A(C   9,Mn  0,C  12)           55.7362         0.332721   
    105. A(C  16,Mn  0,C  18)           56.9151         0.339779   
    106. A(C  12,Mn  0,C  18)          126.5378         0.340697   
    107. A(C   7,Mn  0,C  16)          141.3367         0.348664   
    108. A(C  14,Mn  0,C  17)           58.4302         0.330754   
    109. A(C   7,Mn  0,C  12)           34.9086         0.349614   
    110. A(C   7,Mn  0,C  11)           58.2931         0.330182   
    111. A(C   8,Mn  0,C  12)           57.7990         0.341050   
    112. A(C   7,Mn  0,C   8)           35.8189         0.346849   
    113. A(C   7,Mn  0,C  17)          160.6868         0.339350   
    114. A(C  12,Mn  0,C  17)          150.2126         0.333720   
    115. A(C   7,Mn  0,C  14)          140.5258         0.346455   
    116. A(C  16,Mn  0,C  17)           34.6755         0.332828   
    117. A(C   9,Mn  0,C  17)          107.9385         0.323122   
    118. A(C  11,Mn  0,C  16)          150.5023         0.323899   
    119. A(C   8,Mn  0,C   9)           34.3984         0.330135   
    120. A(C   8,Mn  0,C  16)          121.3823         0.340132   
    121. A(C  14,Mn  0,C  18)           34.4018         0.337647   
    122. A(C   9,Mn  0,C  16)          126.8576         0.331833   
    123. A(C  14,Mn  0,C  16)           58.4400         0.339748   
    124. A(C   7,Mn  0,C   9)           57.4960         0.338328   
    125. A(C   7,Mn  0,C  18)          161.2232         0.346487   
    126. A(C   7,Mn  0,C  15)          132.2646         0.351155   
    127. A(C  11,Mn  0,C  17)          117.9327         0.315473   
    128. A(C  11,Mn  0,C  12)           34.1138         0.324758   
    129. A(C  17,Mn  0,C  18)           34.4547         0.330784   
    130. A(C  11,Mn  0,C  18)          107.8953         0.321930   
    131. A(C   8,Mn  0,C  18)          150.7552         0.338027   
    132. A(C   9,Mn  0,C  14)          150.6680         0.329767   
    133. A(C  12,Mn  0,C  15)          142.2810         0.345259   
    134. A(C  14,Mn  0,C  15)           35.5665         0.342154   
    135. A(C   8,Mn  0,C  14)          174.6600         0.337996   
    136. A(C  15,Mn  0,C  17)           58.1176         0.335167   
    137. A(C  15,Mn  0,C  16)           34.8321         0.344325   
    138. A(C  11,Mn  0,C  15)          160.8087         0.326152   
    139. A(C   9,Mn  0,C  11)           33.6332         0.314549   
    140. A(C   9,Mn  0,C  15)          161.5870         0.334162   
    141. A(C  11,Mn  0,C  14)          125.2875         0.321901   
    142. A(C  15,Mn  0,C  18)           57.2861         0.342185   
    143. A(C   8,Mn  0,C  15)          140.9889         0.342541   
    144. A(C   9,Mn  0,C  18)          119.2986         0.329797   
    145. A(C  12,Mn  0,C  14)          121.8431         0.340666   
    146. A(C   8,Mn  0,C  17)          124.9558         0.331124   
    147. A(C  20,Si  1,C  28)          111.1031         0.457813   
    148. A(C   7,Si  1,C  24)          108.5988         0.456696   
    149. A(C  20,Si  1,C  24)          106.6374         0.456636   
    150. A(C   7,Si  1,C  20)          109.8757         0.459209   
    151. A(C  24,Si  1,C  28)          107.5289         0.455310   
    152. A(C   7,Si  1,C  28)          112.8464         0.457874   
    153. A(C   8,Si  2,C  32)          107.8683         0.459326   
    154. A(C  36,Si  2,C  40)          108.4506         0.461134   
    155. A(C  32,Si  2,C  36)          108.8956         0.462141   
    156. A(C  32,Si  2,C  40)          105.8098         0.460988   
    157. A(C   8,Si  2,C  40)          113.1816         0.458326   
    158. A(C   8,Si  2,C  36)          112.3585         0.459471   
    159. A(C  44,Si  3,C  48)          111.1659         0.464091   
    160. A(C  44,Si  3,C  52)          107.5279         0.460339   
    161. A(C  11,Si  3,C  48)          108.3659         0.467343   
    162. A(C  11,Si  3,C  52)          114.2304         0.463558   
    163. A(C  11,Si  3,C  44)          106.6405         0.460524   
    164. A(C  48,Si  3,C  52)          108.9232         0.467155   
    165. A(C  14,Si  4,C  60)          108.7874         0.457846   
    166. A(C  14,Si  4,C  64)          113.2041         0.461290   
    167. A(C  56,Si  4,C  60)          106.2741         0.460792   
    168. A(C  14,Si  4,C  56)          111.0270         0.462994   
    169. A(C  60,Si  4,C  64)          107.5223         0.459098   
    170. A(C  56,Si  4,C  64)          109.7241         0.464264   
    171. A(C  15,Si  5,C  72)          108.3300         0.452890   
    172. A(C  15,Si  5,C  68)          113.8857         0.459314   
    173. A(C  68,Si  5,C  76)          109.4967         0.465609   
    174. A(C  72,Si  5,C  76)          106.4971         0.459077   
    175. A(C  15,Si  5,C  76)          108.5408         0.452517   
    176. A(C  68,Si  5,C  72)          109.8186         0.465996   
    177. A(C  80,Si  6,C  88)          108.6062         0.469058   
    178. A(C  17,Si  6,C  84)          108.8377         0.471072   
    179. A(C  17,Si  6,C  88)          110.5814         0.469119   
    180. A(C  80,Si  6,C  84)          112.4462         0.471011   
    181. A(C  84,Si  6,C  88)          107.2496         0.474945   
    182. A(C  17,Si  6,C  80)          109.1138         0.465244   
    183. A(C   8,C   7,C  12)          106.4493         0.408468   
    184. A(Mn  0,C   7,Si  1)          128.2548         0.403193   
    185. A(Mn  0,C   7,C  12)           73.5998         0.385737   
    186. A(Si  1,C   7,C  12)          120.3265         0.438699   
    187. A(Si  1,C   7,C   8)          131.8313         0.427261   
    188. A(Mn  0,C   7,C   8)           73.5928         0.376032   
    189. A(Mn  0,C   8,Si  2)          126.0961         0.391803   
    190. A(Si  2,C   8,C   7)          132.5501         0.426074   
    191. A(Mn  0,C   8,C   7)           70.5883         0.366601   
    192. A(C   7,C   8,C   9)          105.7934         0.406399   
    193. A(Si  2,C   8,C   9)          121.1642         0.435215   
    194. A(Mn  0,C   8,C   9)           74.3519         0.374129   
    195. A(C   8,C   9,H  10)          124.1885         0.377075   
    196. A(Mn  0,C   9,H  10)          121.5150         0.332627   
    197. A(Mn  0,C   9,C   8)           71.2496         0.364706   
    198. A(H  10,C   9,C  11)          124.0561         0.378889   
    199. A(C   8,C   9,C  11)          111.7553         0.417059   
    200. A(Mn  0,C   9,C  11)           74.7280         0.366442   
    201. A(Si  3,C  11,C   9)          127.9076         0.440728   
    202. A(Mn  0,C  11,Si  3)          132.6564         0.374940   
    203. A(Mn  0,C  11,C   9)           71.6388         0.357378   
    204. A(C   9,C  11,C  12)          104.4865         0.417394   
    205. A(Si  3,C  11,C  12)          126.3526         0.438884   
    206. A(Mn  0,C  11,C  12)           69.3586         0.355970   
    207. A(C  11,C  12,H  13)          124.2867         0.377655   
    208. A(C   7,C  12,H  13)          124.1981         0.379240   
    209. A(Mn  0,C  12,H  13)          119.2761         0.343908   
    210. A(C   7,C  12,C  11)          111.5151         0.417466   
    211. A(Mn  0,C  12,C  11)           76.5276         0.377480   
    212. A(Mn  0,C  12,C   7)           71.4916         0.379065   
    213. A(Si  4,C  14,C  15)          131.7457         0.428607   
    214. A(Mn  0,C  14,C  15)           71.4009         0.366995   
    215. A(Mn  0,C  14,Si  4)          127.1590         0.392717   
    216. A(C  15,C  14,C  18)          105.4136         0.410340   
    217. A(Si  4,C  14,C  18)          122.2367         0.440073   
    218. A(Mn  0,C  14,C  18)           72.7933         0.376380   
    219. A(Mn  0,C  15,C  14)           73.0325         0.372069   
    220. A(Si  5,C  15,C  14)          132.2225         0.422330   
    221. A(Mn  0,C  15,Si  5)          128.1667         0.392544   
    222. A(C  14,C  15,C  16)          108.1892         0.408301   
    223. A(Si  5,C  15,C  16)          118.6426         0.431397   
    224. A(Mn  0,C  15,C  16)           73.0252         0.379769   
    225. A(Mn  0,C  16,H  92)          119.9126         0.315120   
    226. A(C  17,C  16,H  92)          125.3231         0.344189   
    227. A(C  15,C  16,H  92)          125.3222         0.346509   
    228. A(C  15,C  16,C  17)          109.3548         0.414031   
    229. A(Mn  0,C  16,C  17)           74.3386         0.374411   
    230. A(Mn  0,C  16,C  15)           72.1427         0.377006   
    231. A(C  16,C  17,C  18)          105.3546         0.412739   
    232. A(Si  6,C  17,C  18)          127.9127         0.438919   
    233. A(Mn  0,C  17,C  18)           71.4763         0.365572   
    234. A(Si  6,C  17,C  16)          125.8943         0.437150   
    235. A(Mn  0,C  17,C  16)           70.9859         0.364173   
    236. A(Mn  0,C  17,Si  6)          129.9909         0.386426   
    237. A(C  17,C  18,H  19)          124.1688         0.376781   
    238. A(C  14,C  18,H  19)          124.1455         0.379774   
    239. A(Mn  0,C  18,H  19)          120.5512         0.340584   
    240. A(C  14,C  18,C  17)          111.6857         0.417769   
    241. A(Mn  0,C  18,C  17)           74.0689         0.373457   
    242. A(Mn  0,C  18,C  14)           72.8049         0.376416   
    243. A(H  22,C  20,H  23)          109.4757         0.331486   
    244. A(H  21,C  20,H  23)          109.5654         0.331777   
    245. A(Si  1,C  20,H  23)          109.4285         0.388675   
    246. A(H  21,C  20,H  22)          109.4882         0.331644   
    247. A(Si  1,C  20,H  22)          109.4194         0.388511   
    248. A(Si  1,C  20,H  21)          109.4500         0.388870   
    249. A(H  26,C  24,H  27)          109.5002         0.331328   
    250. A(H  25,C  24,H  27)          109.4000         0.331203   
    251. A(Si  1,C  24,H  27)          109.4925         0.386316   
    252. A(H  25,C  24,H  26)          109.4963         0.331440   
    253. A(Si  1,C  24,H  26)          109.4816         0.386608   
    254. A(Si  1,C  24,H  25)          109.4567         0.386454   
    255. A(H  30,C  28,H  31)          109.5109         0.331479   
    256. A(H  29,C  28,H  31)          109.3718         0.331139   
    257. A(Si  1,C  28,H  31)          109.5432         0.387358   
    258. A(H  29,C  28,H  30)          109.4436         0.331382   
    259. A(Si  1,C  28,H  30)          109.4736         0.387657   
    260. A(Si  1,C  28,H  29)          109.4842         0.387239   
    261. A(Si  2,C  32,H  33)          109.5168         0.389688   
    262. A(H  34,C  32,H  35)          109.3596         0.330954   
    263. A(H  33,C  32,H  35)          109.3985         0.331308   
    264. A(Si  2,C  32,H  35)          109.5518         0.389576   
    265. A(H  33,C  32,H  34)          109.5297         0.331044   
    266. A(Si  2,C  32,H  34)          109.4708         0.389249   
    267. A(H  38,C  36,H  39)          109.3772         0.331232   
    268. A(H  37,C  36,H  39)          109.5429         0.331172   
    269. A(Si  2,C  36,H  39)          109.4953         0.389801   
    270. A(H  37,C  36,H  38)          109.4148         0.331013   
    271. A(Si  2,C  36,H  38)          109.4808         0.389604   
    272. A(Si  2,C  36,H  37)          109.5164         0.389529   
    273. A(H  42,C  40,H  43)          109.4311         0.331585   
    274. A(H  41,C  40,H  43)          109.5188         0.331906   
    275. A(Si  2,C  40,H  43)          109.4978         0.389197   
    276. A(H  41,C  40,H  42)          109.3721         0.331574   
    277. A(Si  2,C  40,H  42)          109.4364         0.388787   
    278. A(Si  2,C  40,H  41)          109.5709         0.389183   
    279. A(H  46,C  44,H  47)          109.5046         0.331323   
    280. A(H  45,C  44,H  47)          109.4144         0.331297   
    281. A(Si  3,C  44,H  47)          109.4873         0.387692   
    282. A(H  45,C  44,H  46)          109.3945         0.331402   
    283. A(Si  3,C  44,H  46)          109.5445         0.387820   
    284. A(Si  3,C  44,H  45)          109.4819         0.387789   
    285. A(H  50,C  48,H  51)          109.5782         0.331350   
    286. A(H  49,C  48,H  51)          109.3314         0.331165   
    287. A(Si  3,C  48,H  51)          109.4794         0.393194   
    288. A(H  49,C  48,H  50)          109.4846         0.331265   
    289. A(Si  3,C  48,H  50)          109.4656         0.393319   
    290. A(Si  3,C  48,H  49)          109.4882         0.393087   
    291. A(H  54,C  52,H  55)          109.5455         0.331459   
    292. A(H  53,C  52,H  55)          109.4536         0.331499   
    293. A(Si  3,C  52,H  55)          109.5775         0.390538   
    294. A(H  53,C  52,H  54)          109.2926         0.331084   
    295. A(Si  3,C  52,H  54)          109.4914         0.390022   
    296. A(Si  3,C  52,H  53)          109.4664         0.390072   
    297. A(H  58,C  56,H  59)          109.5089         0.331353   
    298. A(H  57,C  56,H  59)          109.5925         0.331143   
    299. A(Si  4,C  56,H  59)          109.3132         0.391012   
    300. A(H  57,C  56,H  58)          109.5369         0.331544   
    301. A(Si  4,C  56,H  58)          109.4666         0.391513   
    302. A(Si  4,C  56,H  57)          109.4088         0.391251   
    303. A(H  62,C  60,H  63)          109.4944         0.330963   
    304. A(H  61,C  60,H  63)          109.4233         0.331167   
    305. A(Si  4,C  60,H  63)          109.5645         0.386923   
    306. A(H  61,C  60,H  62)          109.3499         0.331068   
    307. A(Si  4,C  60,H  62)          109.4618         0.386800   
    308. A(Si  4,C  60,H  61)          109.5332         0.387052   
    309. A(H  66,C  64,H  67)          109.5889         0.331688   
    310. A(H  65,C  64,H  67)          109.4535         0.331453   
    311. A(Si  4,C  64,H  67)          109.4260         0.390042   
    312. A(H  65,C  64,H  66)          109.4936         0.331535   
    313. A(Si  4,C  64,H  66)          109.4771         0.390145   
    314. A(Si  4,C  64,H  65)          109.3881         0.389852   
    315. A(H  70,C  68,H  71)          109.4350         0.331317   
    316. A(H  69,C  68,H  71)          109.4222         0.331318   
    317. A(Si  5,C  68,H  71)          109.4419         0.393832   
    318. A(H  69,C  68,H  70)          109.6057         0.331430   
    319. A(Si  5,C  68,H  70)          109.4687         0.393973   
    320. A(Si  5,C  68,H  69)          109.4536         0.393973   
    321. A(H  74,C  72,H  75)          109.4768         0.331250   
    322. A(H  73,C  72,H  75)          109.5067         0.331409   
    323. A(Si  5,C  72,H  75)          109.4305         0.388532   
    324. A(H  73,C  72,H  74)          109.4663         0.331474   
    325. A(Si  5,C  72,H  74)          109.4676         0.388611   
    326. A(Si  5,C  72,H  73)          109.4793         0.388809   
    327. A(H  78,C  76,H  79)          109.4453         0.331429   
    328. A(H  77,C  76,H  79)          109.5790         0.331539   
    329. A(Si  5,C  76,H  79)          109.4439         0.388401   
    330. A(H  77,C  76,H  78)          109.4424         0.331495   
    331. A(Si  5,C  76,H  78)          109.4868         0.388348   
    332. A(Si  5,C  76,H  77)          109.4298         0.388484   
    333. A(H  82,C  80,H  83)          109.4642         0.331186   
    334. A(H  81,C  80,H  83)          109.4001         0.331078   
    335. A(Si  6,C  80,H  83)          109.4516         0.390648   
    336. A(H  81,C  80,H  82)          109.5227         0.331384   
    337. A(Si  6,C  80,H  82)          109.5183         0.391029   
    338. A(Si  6,C  80,H  81)          109.4703         0.390895   
    339. A(H  86,C  84,H  87)          109.5207         0.331537   
    340. A(H  85,C  84,H  87)          109.7056         0.331817   
    341. A(Si  6,C  84,H  87)          109.4188         0.396009   
    342. A(H  85,C  84,H  86)          109.4553         0.331385   
    343. A(Si  6,C  84,H  86)          109.3244         0.395463   
    344. A(Si  6,C  84,H  85)          109.4018         0.395817   
    345. A(H  90,C  88,H  91)          109.4705         0.331132   
    346. A(H  89,C  88,H  91)          109.4858         0.331453   
    347. A(Si  6,C  88,H  91)          109.3952         0.394096   
    348. A(H  89,C  88,H  90)          109.5247         0.331162   
    349. A(Si  6,C  88,H  90)          109.4315         0.393731   
    350. A(Si  6,C  88,H  89)          109.5195         0.394134   
    351. D(C   8,C   7,Mn  0,C  11)    -77.8409         0.001717   
    352. D(C   8,C   7,Si  1,C  24)   -170.4640         0.003937   
    353. D(Mn  0,C   7,Si  1,C  28)     51.5396         0.003937   
    354. D(Si  1,C   7,Mn  0,C   8)   -130.7836         0.001717   
    355. D(Si  1,C   7,Mn  0,C  12)    115.9897         0.001717   
    356. D(C   8,C   7,Si  1,C  28)    -51.3457         0.003937   
    357. D(Si  1,C   7,Mn  0,C  15)     -8.4455         0.001717   
    358. D(Si  1,C   7,Mn  0,C  14)     42.8343         0.001717   
    359. D(Si  1,C   7,Mn  0,C  18)    105.4043         0.001717   
    360. D(Si  1,C   7,Mn  0,C  11)    151.3755         0.001717   
    361. D(Mn  0,C   7,Si  1,C  20)    176.1335         0.003937   
    362. D(Si  1,C   7,Mn  0,C  17)   -124.2462         0.001717   
    363. D(Si  1,C   7,Mn  0,C  16)    -58.6891         0.001717   
    364. D(Mn  0,C   7,Si  1,C  24)    -67.5787         0.003937   
    365. D(C   8,C   7,Mn  0,C  12)   -113.2267         0.001717   
    366. D(C   8,C   7,Si  1,C  20)     73.2482         0.003937   
    367. D(Si  1,C   7,Mn  0,C   9)   -168.6936         0.001717   
    368. D(C   8,C   7,Mn  0,C   9)    -37.9101         0.001717   
    369. D(Mn  0,C   8,Si  2,C  32)    105.8292         0.003860   
    370. D(C   7,C   8,Mn  0,C   9)    113.4773         0.001663   
    371. D(Si  2,C   8,Mn  0,C  14)     79.6751         0.001663   
    372. D(Mn  0,C   8,Si  2,C  36)    -14.2051         0.003860   
    373. D(C   7,C   8,Mn  0,C  12)     38.4243         0.001663   
    374. D(Si  2,C   8,Mn  0,C  17)    -48.2866         0.001663   
    375. D(Si  2,C   8,Mn  0,C  16)     -6.7849         0.001663   
    376. D(Si  2,C   8,Mn  0,C   9)   -117.4425         0.001663   
    377. D(Si  2,C   8,C   7,C  12)    171.5618         0.018672   
    378. D(C   7,C   8,Mn  0,C  11)     78.9588         0.001663   
    379. D(Si  2,C   8,C   7,Si  1)      5.4306         0.018672   
    380. D(Si  2,C   8,Mn  0,C  18)    -84.1106         0.001663   
    381. D(C   9,C   8,C   7,Mn  0)     66.6170         0.018672   
    382. D(Si  2,C   8,Mn  0,C  15)     32.4568         0.001663   
    383. D(Mn  0,C   8,Si  2,C  40)   -137.4629         0.003860   
    384. D(Si  2,C   8,Mn  0,C  12)    167.5045         0.001663   
    385. D(Si  2,C   8,C   7,Mn  0)   -121.6312         0.018672   
    386. D(C   7,C   8,Si  2,C  36)     82.1650         0.003860   
    387. D(Mn  0,C   8,C   7,Si  1)    127.0618         0.018672   
    388. D(Mn  0,C   8,C   7,C  12)    -66.8070         0.018672   
    389. D(Si  2,C   8,Mn  0,C  11)   -151.9610         0.001663   
    390. D(Si  2,C   8,Mn  0,C   7)    129.0802         0.001663   
    391. D(C   7,C   8,Si  2,C  40)    -41.0928         0.003860   
    392. D(C   7,C   8,Si  2,C  32)   -157.8008         0.003860   
    393. D(H  10,C   9,C   8,C   7)   -179.9252         0.023828   
    394. D(C  11,C   9,C   8,Mn  0)     64.2170         0.023828   
    395. D(H  10,C   9,C   8,Si  2)      7.1696         0.023828   
    396. D(C   8,C   9,Mn  0,C   7)     39.5300         0.001623   
    397. D(H  10,C   9,Mn  0,C  11)   -120.8986         0.001623   
    398. D(C   8,C   9,Mn  0,C  12)     81.5834         0.001623   
    399. D(C   8,C   9,Mn  0,C  15)    -88.1172         0.001623   
    400. D(C   8,C   9,Mn  0,C  16)    -93.2732         0.001623   
    401. D(C   8,C   9,Mn  0,C  14)    176.7945         0.001623   
    402. D(C   8,C   9,Mn  0,C  18)   -162.0718         0.001623   
    403. D(H  10,C   9,Mn  0,C   8)    119.2050         0.001623   
    404. D(H  10,C   9,Mn  0,C   7)    158.7350         0.001623   
    405. D(C   8,C   9,Mn  0,C  11)    119.8964         0.001623   
    406. D(H  10,C   9,C   8,Mn  0)   -115.8961         0.023828   
    407. D(Mn  0,C   9,C   8,Si  2)    123.0656         0.023828   
    408. D(H  10,C   9,Mn  0,C  12)   -159.2116         0.001623   
    409. D(C   8,C   9,Mn  0,C  17)   -126.3809         0.001623   
    410. D(Mn  0,C   9,C   8,C   7)    -64.0291         0.023828   
    411. D(Si  3,C  11,Mn  0,C   8)    160.3693         0.001593   
    412. D(Si  3,C  11,Mn  0,C   9)    125.0593         0.001593   
    413. D(Si  3,C  11,Mn  0,C   7)   -157.1639         0.001593   
    414. D(Si  3,C  11,C   9,H  10)    -12.2726         0.025253   
    415. D(C  12,C  11,C   9,Mn  0)     62.0062         0.025253   
    416. D(Si  3,C  11,C   9,C   8)    167.6145         0.025253   
    417. D(Mn  0,C  11,C   9,H  10)    117.9998         0.025253   
    418. D(Si  3,C  11,C   9,Mn  0)   -130.2724         0.025253   
    419. D(C   9,C  11,Si  3,C  52)    106.0384         0.004073   
    420. D(C   9,C  11,Si  3,C  48)    -15.5716         0.004073   
    421. D(C   9,C  11,Mn  0,C  12)    113.9963         0.001593   
    422. D(C   9,C  11,Mn  0,C   8)     35.3099         0.001593   
    423. D(C   9,C  11,Mn  0,C   7)     77.7767         0.001593   
    424. D(Mn  0,C  11,Si  3,C  44)    124.6180         0.004073   
    425. D(Mn  0,C  11,Si  3,C  48)   -115.6262         0.004073   
    426. D(Si  3,C  11,Mn  0,C  18)      8.7607         0.001593   
    427. D(Mn  0,C  11,Si  3,C  52)      5.9837         0.004073   
    428. D(Mn  0,C  11,C   9,C   8)    -62.1130         0.025253   
    429. D(Si  3,C  11,Mn  0,C  17)     44.7086         0.001593   
    430. D(Si  3,C  11,Mn  0,C  16)     62.3034         0.001593   
    431. D(Si  3,C  11,Mn  0,C  15)    -28.1130         0.001593   
    432. D(Si  3,C  11,Mn  0,C  14)    -24.7596         0.001593   
    433. D(Si  3,C  11,Mn  0,C  12)   -120.9444         0.001593   
    434. D(C   9,C  11,Si  3,C  44)   -135.3274         0.004073   
    435. D(H  13,C  12,C  11,Mn  0)   -116.4408         0.024053   
    436. D(C   7,C  12,C  11,Si  3)   -167.9955         0.024053   
    437. D(H  13,C  12,C  11,Si  3)     12.0073         0.024053   
    438. D(Mn  0,C  12,C  11,C   9)    -63.5770         0.024053   
    439. D(Mn  0,C  12,C  11,Si  3)    128.4481         0.024053   
    440. D(H  13,C  12,C   7,Si  1)    -11.8107         0.025305   
    441. D(C  11,C  12,C   7,C   8)      0.1339         0.025305   
    442. D(C  11,C  12,C   7,Mn  0)    -66.6683         0.025305   
    443. D(C  11,C  12,Mn  0,C  14)   -107.1982         0.001679   
    444. D(C  11,C  12,Mn  0,C  17)    -26.1477         0.001679   
    445. D(C  11,C  12,Mn  0,C  15)   -147.5435         0.001679   
    446. D(C  11,C  12,C   7,Si  1)    168.1921         0.025305   
    447. D(C  11,C  12,Mn  0,C   9)     37.7529         0.001679   
    448. D(C  11,C  12,Mn  0,C   8)     79.0869         0.001679   
    449. D(H  13,C  12,C   7,Mn  0)    113.3289         0.025305   
    450. D(C  11,C  12,Mn  0,C   7)    118.5478         0.001679   
    451. D(C   7,C  12,Mn  0,C  18)    175.7795         0.001679   
    452. D(C   7,C  12,Mn  0,C  14)    134.2540         0.001679   
    453. D(C   7,C  12,Mn  0,C  11)   -118.5478         0.001679   
    454. D(C   7,C  12,Mn  0,C   9)    -80.7949         0.001679   
    455. D(C   7,C  12,Mn  0,C   8)    -39.4609         0.001679   
    456. D(C   7,C  12,C  11,Mn  0)     63.5564         0.024053   
    457. D(Mn  0,C  12,C   7,Si  1)   -125.1396         0.025305   
    458. D(C   7,C  12,C  11,C   9)     -0.0206         0.024053   
    459. D(C   7,C  12,Mn  0,C  17)   -144.6955         0.001679   
    460. D(Mn  0,C  12,C   7,C   8)     66.8022         0.025305   
    461. D(C   7,C  12,Mn  0,C  15)     93.9087         0.001679   
    462. D(Mn  0,C  14,Si  4,C  64)    -20.3009         0.003960   
    463. D(Mn  0,C  14,Si  4,C  60)     99.1608         0.003960   
    464. D(Mn  0,C  14,Si  4,C  56)   -144.2310         0.003960   
    465. D(C  15,C  14,Mn  0,C   8)    -52.5885         0.001661   
    466. D(C  15,C  14,Mn  0,C   7)    -96.9357         0.001661   
    467. D(Si  4,C  14,Mn  0,C  18)   -117.7726         0.001661   
    468. D(Si  4,C  14,Mn  0,C  17)   -153.1268         0.001661   
    469. D(Si  4,C  14,Mn  0,C  16)    165.9291         0.001661   
    470. D(Si  4,C  14,Mn  0,C  15)    128.7879         0.001661   
    471. D(Si  4,C  14,Mn  0,C  12)     -8.2949         0.001661   
    472. D(C  15,C  14,Mn  0,C   9)    147.2544         0.001661   
    473. D(Si  4,C  14,Mn  0,C   8)     76.1994         0.001661   
    474. D(Si  4,C  14,Mn  0,C   7)     31.8522         0.001661   
    475. D(Si  4,C  14,Mn  0,C   9)    -83.9577         0.001661   
    476. D(C  15,C  14,Si  4,C  56)    -46.1843         0.003960   
    477. D(Si  4,C  14,Mn  0,C  11)    -49.3177         0.001661   
    478. D(C  15,C  14,Si  4,C  64)     77.7457         0.003960   
    479. D(C  15,C  14,Si  4,C  60)   -162.7926         0.003960   
    480. D(C  16,C  15,C  14,Mn  0)    -65.0679         0.019174   
    481. D(Si  5,C  15,C  14,C  18)   -168.0639         0.019174   
    482. D(Si  5,C  15,C  14,Mn  0)    126.5527         0.019174   
    483. D(Mn  0,C  15,C  14,C  18)     65.3834         0.019174   
    484. D(Mn  0,C  15,C  14,Si  4)   -123.6333         0.019174   
    485. D(C  14,C  15,Si  5,C  76)   -164.7996         0.003578   
    486. D(C  14,C  15,Si  5,C  72)     79.9462         0.003578   
    487. D(C  14,C  15,Si  5,C  68)    -42.5561         0.003578   
    488. D(Mn  0,C  15,Si  5,C  76)    -62.5590         0.003578   
    489. D(Mn  0,C  15,Si  5,C  72)   -177.8132         0.003578   
    490. D(Mn  0,C  15,Si  5,C  68)     59.6845         0.003578   
    491. D(C  14,C  15,Mn  0,C   9)   -122.9769         0.001688   
    492. D(C  14,C  15,Mn  0,C   8)    173.2559         0.001688   
    493. D(C  14,C  15,Mn  0,C   7)    121.4874         0.001688   
    494. D(Si  5,C  15,Mn  0,C  18)   -168.8625         0.001688   
    495. D(Si  5,C  15,Mn  0,C  17)    150.1283         0.001688   
    496. D(Si  5,C  15,Mn  0,C  16)    113.4243         0.001688   
    497. D(Si  5,C  15,Mn  0,C  14)   -130.8310         0.001688   
    498. D(Si  5,C  15,Mn  0,C  12)    -59.8313         0.001688   
    499. D(Si  5,C  15,Mn  0,C  11)   -126.1223         0.001688   
    500. D(Si  5,C  15,C  14,Si  4)      2.9193         0.019174   
    501. D(Si  5,C  15,Mn  0,C   9)    106.1922         0.001688   
    502. D(Si  5,C  15,Mn  0,C   8)     42.4250         0.001688   
    503. D(Si  5,C  15,Mn  0,C   7)     -9.3436         0.001688   
    504. D(H  92,C  16,C  15,Si  5)    -10.2675         0.024504   
    505. D(H  92,C  16,C  15,Mn  0)    114.4457         0.024504   
    506. D(C  17,C  16,C  15,C  14)     -0.4853         0.024504   
    507. D(C  17,C  16,C  15,Si  5)    169.7289         0.024504   
    508. D(C  17,C  16,C  15,Mn  0)    -65.5580         0.024504   
    509. D(Mn  0,C  16,C  15,C  14)     65.0727         0.024504   
    510. D(H  92,C  16,C  12,C  11)     98.2832         0.001500   
    511. D(H  92,C  16,C  12,C   7)    -19.8491         0.001500   
    512. D(C  17,C  16,C  12,H  13)     98.1517         0.001500   
    513. D(C  17,C  16,C  12,C   7)   -143.1238         0.001500   
    514. D(C  15,C  16,C  12,H  13)    -18.0925         0.001500   
    515. D(C  15,C  16,C  12,C  11)   -141.2357         0.001500   
    516. D(C  15,C  16,C  12,C   7)    100.6320         0.001500   
    517. D(C  17,C  16,Mn  0,C  15)    116.8682         0.001673   
    518. D(C  17,C  16,Mn  0,C  14)     78.9269         0.001673   
    519. D(C  17,C  16,Mn  0,C  11)    -27.9966         0.001673   
    520. D(C  17,C  16,C  12,C  11)    -24.9915         0.001500   
    521. D(C  17,C  16,Mn  0,C   9)    -65.9804         0.001673   
    522. D(C  17,C  16,Mn  0,C   8)   -107.3314         0.001673   
    523. D(C  17,C  16,Mn  0,C   7)   -148.0470         0.001673   
    524. D(Mn  0,C  16,C  15,Si  5)   -124.7131         0.024504   
    525. D(C  15,C  16,Mn  0,C  18)    -78.8713         0.001673   
    526. D(C  15,C  16,Mn  0,C  17)   -116.8682         0.001673   
    527. D(C  15,C  16,Mn  0,C  14)    -37.9413         0.001673   
    528. D(C  15,C  16,Mn  0,C  11)   -144.8648         0.001673   
    529. D(C  15,C  16,Mn  0,C   9)    177.1514         0.001673   
    530. D(C  15,C  16,Mn  0,C   8)    135.8004         0.001673   
    531. D(C  15,C  16,Mn  0,C   7)     95.0848         0.001673   
    532. D(C  18,C  17,C  16,C  15)      0.4507         0.022542   
    533. D(C  18,C  17,C  16,Mn  0)    -63.6985         0.022542   
    534. D(Si  6,C  17,C  16,H  92)     10.2813         0.022542   
    535. D(Si  6,C  17,C  16,Mn  0)    126.1358         0.022542   
    536. D(Mn  0,C  17,C  16,H  92)   -115.8545         0.022542   
    537. D(Mn  0,C  17,C  16,C  15)     64.1492         0.022542   
    538. D(C  16,C  17,Si  6,C  84)     77.9743         0.004122   
    539. D(C  16,C  17,Si  6,C  80)   -158.9879         0.004122   
    540. D(Mn  0,C  17,Si  6,C  88)     55.1196         0.004122   
    541. D(Mn  0,C  17,Si  6,C  84)    172.6866         0.004122   
    542. D(Mn  0,C  17,Si  6,C  80)    -64.2756         0.004122   
    543. D(C  16,C  17,Mn  0,C   9)    129.8088         0.001627   
    544. D(C  16,C  17,Mn  0,C   8)     96.1017         0.001627   
    545. D(C  16,C  17,Mn  0,C   7)     91.4387         0.001627   
    546. D(Si  6,C  17,Mn  0,C  18)    124.3871         0.001627   
    547. D(Si  6,C  17,Mn  0,C  16)   -121.3555         0.001627   
    548. D(C  16,C  17,Si  6,C  88)    -39.5927         0.004122   
    549. D(Si  6,C  17,Mn  0,C  15)   -158.2283         0.001627   
    550. D(Si  6,C  17,Mn  0,C  14)    159.6867         0.001627   
    551. D(Si  6,C  17,Mn  0,C  12)     59.7235         0.001627   
    552. D(Si  6,C  17,C  16,C  15)   -169.7150         0.022542   
    553. D(Si  6,C  17,Mn  0,C  11)     43.4785         0.001627   
    554. D(Si  6,C  17,Mn  0,C   9)      8.4532         0.001627   
    555. D(Si  6,C  17,Mn  0,C   8)    -25.2538         0.001627   
    556. D(Si  6,C  17,Mn  0,C   7)    -29.9168         0.001627   
    557. D(H  19,C  18,C  17,Mn  0)    116.4318         0.023618   
    558. D(C  14,C  18,C  17,C  16)     -0.2538         0.023618   
    559. D(C  14,C  18,C  17,Si  6)    169.6455         0.023618   
    560. D(C  14,C  18,C  17,Mn  0)    -63.6176         0.023618   
    561. D(Mn  0,C  18,C  17,C  16)     63.3638         0.023618   
    562. D(Mn  0,C  18,C  17,Si  6)   -126.7369         0.023618   
    563. D(H  19,C  18,C  14,Mn  0)   -115.6609         0.025995   
    564. D(C  17,C  18,C  14,Si  4)   -172.0883         0.025995   
    565. D(C  17,C  18,C  14,Mn  0)     64.3885         0.025995   
    566. D(Mn  0,C  18,C  14,C  15)    -64.4230         0.025995   
    567. D(Mn  0,C  18,C  14,Si  4)    123.5231         0.025995   
    568. D(C  17,C  18,Mn  0,C  11)    113.5442         0.001661   
    569. D(C  17,C  18,Mn  0,C   9)     78.8372         0.001661   
    570. D(C  17,C  18,Mn  0,C   8)     57.9846         0.001661   
    571. D(C  17,C  18,Mn  0,C   7)    153.5435         0.001661   
    572. D(C  17,C  18,C  14,C  15)     -0.0345         0.025995   
    573. D(C  14,C  18,Mn  0,C  17)    119.3791         0.001661   
    574. D(C  14,C  18,Mn  0,C  16)     81.1307         0.001661   
    575. D(C  14,C  18,Mn  0,C  15)     39.3648         0.001661   
    576. D(C  14,C  18,Mn  0,C  12)    -94.5956         0.001661   
    577. D(C  14,C  18,Mn  0,C  11)   -127.0766         0.001661   
    578. D(C  14,C  18,Mn  0,C   9)   -161.7837         0.001661   
    579. D(C  14,C  18,Mn  0,C   8)    177.3638         0.001661   
    580. D(C  14,C  18,Mn  0,C   7)    -87.0774         0.001661   
    581. D(H  22,C  20,Si  1,C  28)     61.7581         0.003933   
    582. D(H  22,C  20,Si  1,C  24)    178.6475         0.003933   
    583. D(H  22,C  20,Si  1,C   7)    -63.8370         0.003933   
    584. D(H  21,C  20,Si  1,C  28)   -178.2659         0.003933   
    585. D(H  21,C  20,Si  1,C  24)    -61.3764         0.003933   
    586. D(H  21,C  20,Si  1,C   7)     56.1391         0.003933   
    587. D(H  26,C  24,Si  1,C  28)    -64.0143         0.003788   
    588. D(H  26,C  24,Si  1,C  20)    176.7462         0.003788   
    589. D(H  26,C  24,Si  1,C   7)     58.3903         0.003788   
    590. D(H  25,C  24,Si  1,C  28)     56.0139         0.003788   
    591. D(H  25,C  24,Si  1,C  20)    -63.2257         0.003788   
    592. D(H  25,C  24,Si  1,C   7)    178.4184         0.003788   
    593. D(H  30,C  28,Si  1,C  24)     57.4526         0.003855   
    594. D(H  30,C  28,Si  1,C  20)    173.7952         0.003855   
    595. D(H  30,C  28,Si  1,C   7)    -62.2843         0.003855   
    596. D(H  29,C  28,Si  1,C  24)    177.4282         0.003855   
    597. D(H  29,C  28,Si  1,C  20)    -66.2291         0.003855   
    598. D(H  29,C  28,Si  1,C   7)     57.6914         0.003855   
    599. D(H  34,C  32,Si  2,C  40)    -65.7195         0.004019   
    600. D(H  34,C  32,Si  2,C  36)    177.8835         0.004019   
    601. D(H  34,C  32,Si  2,C   8)     55.6893         0.004019   
    602. D(H  33,C  32,Si  2,C  40)     54.3798         0.004019   
    603. D(H  33,C  32,Si  2,C  36)    -62.0171         0.004019   
    604. D(H  33,C  32,Si  2,C   8)    175.7886         0.004019   
    605. D(H  37,C  36,Si  2,C   8)    178.4672         0.004028   
    606. D(H  38,C  36,Si  2,C  40)   -175.6275         0.004028   
    607. D(H  38,C  36,Si  2,C  32)    -60.9338         0.004028   
    608. D(H  38,C  36,Si  2,C   8)     58.5028         0.004028   
    609. D(H  37,C  36,Si  2,C  40)    -55.6632         0.004028   
    610. D(H  37,C  36,Si  2,C  32)     59.0305         0.004028   
    611. D(H  42,C  40,Si  2,C  36)    177.2414         0.003958   
    612. D(H  42,C  40,Si  2,C  32)     60.5435         0.003958   
    613. D(H  42,C  40,Si  2,C   8)    -57.3710         0.003958   
    614. D(H  41,C  40,Si  2,C  36)    -62.8403         0.003958   
    615. D(H  41,C  40,Si  2,C  32)   -179.5382         0.003958   
    616. D(H  41,C  40,Si  2,C   8)     62.5472         0.003958   
    617. D(H  46,C  44,Si  3,C  52)    173.0275         0.003880   
    618. D(H  46,C  44,Si  3,C  48)    -67.8302         0.003880   
    619. D(H  46,C  44,Si  3,C  11)     50.0984         0.003880   
    620. D(H  45,C  44,Si  3,C  52)    -67.0152         0.003880   
    621. D(H  45,C  44,Si  3,C  48)     52.1272         0.003880   
    622. D(H  45,C  44,Si  3,C  11)    170.0558         0.003880   
    623. D(H  50,C  48,Si  3,C  52)    -54.8785         0.004306   
    624. D(H  50,C  48,Si  3,C  44)   -173.1825         0.004306   
    625. D(H  50,C  48,Si  3,C  11)     69.9385         0.004306   
    626. D(H  49,C  48,Si  3,C  52)     65.1448         0.004306   
    627. D(H  49,C  48,Si  3,C  44)    -53.1592         0.004306   
    628. D(H  49,C  48,Si  3,C  11)   -170.0382         0.004306   
    629. D(H  54,C  52,Si  3,C  48)     55.5868         0.004061   
    630. D(H  54,C  52,Si  3,C  44)    176.1548         0.004061   
    631. D(H  54,C  52,Si  3,C  11)    -65.7157         0.004061   
    632. D(H  53,C  52,Si  3,C  48)    175.3775         0.004061   
    633. D(H  53,C  52,Si  3,C  44)    -64.0545         0.004061   
    634. D(H  53,C  52,Si  3,C  11)     54.0749         0.004061   
    635. D(H  58,C  56,Si  4,C  64)    179.1026         0.004143   
    636. D(H  58,C  56,Si  4,C  60)     63.1353         0.004143   
    637. D(H  58,C  56,Si  4,C  14)    -55.0064         0.004143   
    638. D(H  57,C  56,Si  4,C  64)    -60.8580         0.004143   
    639. D(H  57,C  56,Si  4,C  60)   -176.8252         0.004143   
    640. D(H  57,C  56,Si  4,C  14)     65.0331         0.004143   
    641. D(H  62,C  60,Si  4,C  64)    179.1061         0.003831   
    642. D(H  62,C  60,Si  4,C  56)    -63.4515         0.003831   
    643. D(H  62,C  60,Si  4,C  14)     56.1609         0.003831   
    644. D(H  61,C  60,Si  4,C  64)    -61.0103         0.003831   
    645. D(H  61,C  60,Si  4,C  56)     56.4321         0.003831   
    646. D(H  61,C  60,Si  4,C  14)    176.0445         0.003831   
    647. D(H  66,C  64,Si  4,C  60)     57.6865         0.004036   
    648. D(H  66,C  64,Si  4,C  56)    -57.4883         0.004036   
    649. D(H  66,C  64,Si  4,C  14)    177.8719         0.004036   
    650. D(H  65,C  64,Si  4,C  60)    177.6666         0.004036   
    651. D(H  65,C  64,Si  4,C  56)     62.4918         0.004036   
    652. D(H  65,C  64,Si  4,C  14)    -62.1480         0.004036   
    653. D(H  70,C  68,Si  5,C  76)     61.6715         0.004362   
    654. D(H  70,C  68,Si  5,C  72)    178.2743         0.004362   
    655. D(H  70,C  68,Si  5,C  15)    -60.0443         0.004362   
    656. D(H  69,C  68,Si  5,C  76)   -178.1761         0.004362   
    657. D(H  69,C  68,Si  5,C  72)    -61.5733         0.004362   
    658. D(H  69,C  68,Si  5,C  15)     60.1081         0.004362   
    659. D(H  74,C  72,Si  5,C  76)    -56.2654         0.003942   
    660. D(H  74,C  72,Si  5,C  68)   -174.7373         0.003942   
    661. D(H  74,C  72,Si  5,C  15)     60.3164         0.003942   
    662. D(H  73,C  72,Si  5,C  76)     63.7314         0.003942   
    663. D(H  73,C  72,Si  5,C  68)    -54.7406         0.003942   
    664. D(H  73,C  72,Si  5,C  15)   -179.6868         0.003942   
    665. D(H  78,C  76,Si  5,C  72)    177.7589         0.003920   
    666. D(H  78,C  76,Si  5,C  68)    -63.5579         0.003920   
    667. D(H  78,C  76,Si  5,C  15)     61.3180         0.003920   
    668. D(H  77,C  76,Si  5,C  72)    -62.2921         0.003920   
    669. D(H  77,C  76,Si  5,C  68)     56.3910         0.003920   
    670. D(H  77,C  76,Si  5,C  15)   -178.7330         0.003920   
    671. D(H  82,C  80,Si  6,C  88)    -74.0903         0.004118   
    672. D(H  82,C  80,Si  6,C  84)    167.3801         0.004118   
    673. D(H  82,C  80,Si  6,C  17)     46.5226         0.004118   
    674. D(H  81,C  80,Si  6,C  88)     46.0011         0.004118   
    675. D(H  81,C  80,Si  6,C  84)    -72.5285         0.004118   
    676. D(H  81,C  80,Si  6,C  17)    166.6140         0.004118   
    677. D(H  86,C  84,Si  6,C  88)   -179.2392         0.004510   
    678. D(H  86,C  84,Si  6,C  80)    -59.9153         0.004510   
    679. D(H  86,C  84,Si  6,C  17)     61.1005         0.004510   
    680. D(H  85,C  84,Si  6,C  88)    -59.3904         0.004510   
    681. D(H  85,C  84,Si  6,C  80)     59.9334         0.004510   
    682. D(H  85,C  84,Si  6,C  17)   -179.0507         0.004510   
    683. D(H  90,C  88,Si  6,C  84)   -175.4464         0.004373   
    684. D(H  90,C  88,Si  6,C  80)     62.7926         0.004373   
    685. D(H  90,C  88,Si  6,C  17)    -56.9085         0.004373   
    686. D(H  89,C  88,Si  6,C  84)    -55.3756         0.004373   
    687. D(H  89,C  88,Si  6,C  80)   -177.1367         0.004373   
    688. D(H  89,C  88,Si  6,C  17)     63.1623         0.004373   
    -----------------------------------------------------------------

Number of atoms                         .... 93
Number of degrees of freedom            .... 688


         *************************************************************
         *                GEOMETRY OPTIMIZATION CYCLE   1            *
         *************************************************************
---------------------------------
CARTESIAN COORDINATES (ANGSTROEM)
---------------------------------
  Mn    14.720900   14.190100   -2.230700
  Si    16.302800   14.795100    1.171000
  Si    14.441600   17.701900   -0.791100
  Si    11.261400   12.849400   -0.808700
  Si    15.895600   10.731500   -3.349300
  Si    18.274000   13.891200   -3.644800
  Si    13.018600   15.269900   -5.556200
  C     14.818200   14.789300    0.040000
  C     14.109600   15.867200   -0.640500
  C     12.881600   15.299800   -1.092500
  H     12.216700   15.779400   -1.573400
  C     12.771400   13.931400   -0.734600
  C     13.981100   13.646800   -0.037200
  H     14.200000   12.799200    0.329900
  C     15.538400   12.520600   -3.736800
  C     16.405900   13.685600   -3.820200
  C     15.647400   14.767200   -4.348100
  C     14.311400   14.323300   -4.618300
  C     14.283400   12.950200   -4.229300
  H     13.516300   12.392600   -4.293800
  C     15.824300   15.473400    2.842800
  H     15.081100   14.950600    3.206000
  H     15.550100   16.409500    2.748300
  H     16.591600   15.417500    3.448800
  C     16.850900   13.023700    1.447300
  H     17.646200   13.013600    2.020000
  H     17.063300   12.609300    0.585600
  H     16.129500   12.522100    1.882800
  C     17.757100   15.729900    0.455900
  H     17.488900   16.653000    0.261300
  H     18.050400   15.294600   -0.370600
  H     18.493800   15.734800    1.102600
  C     12.831700   18.541900   -1.202700
  H     12.964300   19.512600   -1.221200
  H     12.161100   18.315200   -0.522600
  H     12.518900   18.239200   -2.081100
  C     15.682000   18.090000   -2.123700
  H     15.806100   19.061300   -2.183100
  H     15.355400   17.749900   -2.983600
  H     16.537300   17.662800   -1.908800
  C     15.025600   18.475600    0.802400
  H     15.878800   18.076100    1.067400
  H     14.360400   18.317400    1.504800
  H     15.141300   19.438900    0.674600
  C     11.211100   11.889900    0.795000
  H     10.351700   11.425200    0.871000
  H     11.315400   12.506500    1.549300
  H     11.938800   11.233100    0.806100
  C      9.776000   13.934100   -0.984000
  H      8.963500   13.397900   -0.865400
  H      9.772000   14.340700   -1.875400
  H      9.802800   14.637800   -0.302100
  C     11.274400   11.615100   -2.199700
  H     12.097200   11.083400   -2.157100
  H     11.238700   12.088700   -3.057800
  H     10.499200   11.023000   -2.120000
  C     17.372900   10.127400   -4.295700
  H     18.171500   10.609700   -3.995500
  H     17.234900   10.285800   -5.251900
  H     17.489600    9.166500   -4.136300
  C     14.446900    9.690600   -3.917600
  H     14.649700    8.742000   -3.776800
  H     14.284200    9.850100   -4.872000
  H     13.647100    9.932800   -3.404300
  C     16.138700   10.409100   -1.532600
  H     16.916200   10.913600   -1.213800
  H     16.288300    9.452500   -1.388000
  H     15.340900   10.694600   -1.041500
  C     19.004600   12.924500   -2.253500
  H     18.830800   11.970300   -2.392500
  H     18.601000   13.212500   -1.408400
  H     19.972300   13.078400   -2.222000
  C     19.073500   13.387200   -5.253800
  H     20.045300   13.482800   -5.179600
  H     18.743100   13.960900   -5.976500
  H     18.850500   12.452900   -5.450200
  C     18.652300   15.704600   -3.409900
  H     19.621100   15.828600   -3.337600
  H     18.220400   16.025200   -2.590800
  H     18.312900   16.210600   -4.177100
  C     11.340300   14.613200   -5.109200
  H     10.651400   15.234300   -5.426100
  H     11.274000   14.519400   -4.136300
  H     11.208900   13.737500   -5.531800
  C     13.370100   15.131600   -7.355300
  H     12.701300   15.640900   -7.857500
  H     13.330700   14.188800   -7.622100
  H     14.262800   15.486800   -7.540600
  C     13.084300   17.061400   -5.122200
  H     13.949000   17.432700   -5.394600
  H     12.972800   17.166800   -4.153000
  H     12.363900   17.535500   -5.587300
  H     16.023000   15.774800   -4.520100

----------------------------
CARTESIAN COORDINATES (A.U.)
----------------------------
  NO LB      ZA    FRAG     MASS         X           Y           Z
   0 Mn   25.0000    0    54.940   27.818469   26.815403   -4.215412
   1 Si   14.0000    0    28.086   30.807827   27.958687    2.212869
   2 Si   14.0000    0    28.086   27.290669   33.451743   -1.494962
   3 Si   14.0000    0    28.086   21.280962   24.281847   -1.528222
   4 Si   14.0000    0    28.086   30.038331   20.279596   -6.329260
   5 Si   14.0000    0    28.086   34.532855   26.250564   -6.887674
   6 Si   14.0000    0    28.086   24.601589   28.855929  -10.499696
   7 C     6.0000    0    12.011   28.002340   27.947727    0.075589
   8 C     6.0000    0    12.011   26.663280   29.984663   -1.210370
   9 C     6.0000    0    12.011   24.342696   28.912432   -2.064526
  10 H     1.0000    0     1.008   23.086217   29.818745   -2.973295
  11 C     6.0000    0    12.011   24.134448   26.326531   -1.388193
  12 C     6.0000    0    12.011   26.420450   25.788715   -0.070298
  13 H     1.0000    0     1.008   26.834111   24.186983    0.623421
  14 C     6.0000    0    12.011   29.363321   23.660505   -7.061529
  15 C     6.0000    0    12.011   31.002658   25.862036   -7.219132
  16 C     6.0000    0    12.011   29.569301   27.905964   -8.216718
  17 C     6.0000    0    12.011   27.044627   27.067114   -8.727322
  18 C     6.0000    0    12.011   26.991714   24.472331   -7.992219
  19 H     1.0000    0     1.008   25.542105   23.418620   -8.114106
  20 C     6.0000    0    12.011   29.903593   29.240488    5.372113
  21 H     1.0000    0     1.008   28.499149   28.252540    6.058462
  22 H     1.0000    0     1.008   29.385430   31.009461    5.193534
  23 H     1.0000    0     1.008   31.353580   29.134853    6.517287
  24 C     6.0000    0    12.011   31.843586   24.611226    2.735001
  25 H     1.0000    0     1.008   33.346485   24.592140    3.817247
  26 H     1.0000    0     1.008   32.244964   23.828124    1.106624
  27 H     1.0000    0     1.008   30.480338   23.663340    3.557976
  28 C     6.0000    0    12.011   33.556056   29.725203    0.861526
  29 H     1.0000    0     1.008   33.049231   31.469609    0.493785
  30 H     1.0000    0     1.008   34.110313   28.902605   -0.700333
  31 H     1.0000    0     1.008   34.948217   29.734463    2.083612
  32 C     6.0000    0    12.011   24.248399   35.039113   -2.272774
  33 H     1.0000    0     1.008   24.498977   36.873470   -2.307734
  34 H     1.0000    0     1.008   22.981148   34.610712   -0.987571
  35 H     1.0000    0     1.008   23.657292   34.467093   -3.932709
  36 C     6.0000    0    12.011   29.634685   34.185146   -4.013211
  37 H     1.0000    0     1.008   29.869200   36.020637   -4.125461
  38 H     1.0000    0     1.008   29.017501   33.542450   -5.638187
  39 H     1.0000    0     1.008   31.250968   33.377855   -3.607109
  40 C     6.0000    0    12.011   28.394269   34.913824    1.516316
  41 H     1.0000    0     1.008   30.006583   34.158879    2.017094
  42 H     1.0000    0     1.008   27.137223   34.614869    2.843660
  43 H     1.0000    0     1.008   28.612910   36.734197    1.274809
  44 C     6.0000    0    12.011   21.185909   22.468655    1.502332
  45 H     1.0000    0     1.008   19.561878   21.590499    1.645951
  46 H     1.0000    0     1.008   21.383007   23.633860    2.927753
  47 H     1.0000    0     1.008   22.561062   21.227483    1.523308
  48 C     6.0000    0    12.011   18.473963   26.331633   -1.859491
  49 H     1.0000    0     1.008   16.938560   25.318362   -1.635369
  50 H     1.0000    0     1.008   18.466404   27.099996   -3.543992
  51 H     1.0000    0     1.008   18.524607   27.661433   -0.570886
  52 C     6.0000    0    12.011   21.305528   21.949358   -4.156831
  53 H     1.0000    0     1.008   22.860395   20.944591   -4.076328
  54 H     1.0000    0     1.008   21.238065   22.844332   -5.778405
  55 H     1.0000    0     1.008   19.840613   20.830451   -4.006219
  56 C     6.0000    0    12.011   32.830023   19.138012   -8.117697
  57 H     1.0000    0     1.008   34.339158   20.049427   -7.550401
  58 H     1.0000    0     1.008   32.569241   19.437345   -9.924653
  59 H     1.0000    0     1.008   33.050554   17.322175   -7.816474
  60 C     6.0000    0    12.011   27.300684   18.312580   -7.403191
  61 H     1.0000    0     1.008   27.683921   16.519986   -7.137118
  62 H     1.0000    0     1.008   26.993226   18.613991   -9.206746
  63 H     1.0000    0     1.008   25.789282   18.770272   -6.433195
  64 C     6.0000    0    12.011   30.497723   19.670348   -2.896194
  65 H     1.0000    0     1.008   31.966985   20.623715   -2.293750
  66 H     1.0000    0     1.008   30.780426   17.862636   -2.622940
  67 H     1.0000    0     1.008   28.990100   20.209865   -1.968150
  68 C     6.0000    0    12.011   35.913489   24.423765   -4.258498
  69 H     1.0000    0     1.008   35.585055   22.620589   -4.521170
  70 H     1.0000    0     1.008   35.150796   24.968007   -2.661490
  71 H     1.0000    0     1.008   37.742177   24.714594   -4.198971
  72 C     6.0000    0    12.011   36.043691   25.298142   -9.928243
  73 H     1.0000    0     1.008   37.880127   25.478800   -9.788025
  74 H     1.0000    0     1.008   35.419326   26.382278  -11.293948
  75 H     1.0000    0     1.008   35.622282   23.532571  -10.299385
  76 C     6.0000    0    12.011   35.247739   29.677393   -6.443777
  77 H     1.0000    0     1.008   37.078505   29.911719   -6.307150
  78 H     1.0000    0     1.008   34.431566   30.283239   -4.895902
  79 H     1.0000    0     1.008   34.606366   30.633594   -7.893575
  80 C     6.0000    0    12.011   21.430061   27.614946   -9.654989
  81 H     1.0000    0     1.008   20.128229   28.788655  -10.253843
  82 H     1.0000    0     1.008   21.304772   27.437690   -7.816474
  83 H     1.0000    0     1.008   21.181751   25.960113  -10.453587
  84 C     6.0000    0    12.011   25.265827   28.594580  -13.899503
  85 H     1.0000    0     1.008   24.001979   29.557017  -14.848523
  86 H     1.0000    0     1.008   25.191372   26.812946  -14.403682
  87 H     1.0000    0     1.008   26.952786   29.265811  -14.249669
  88 C     6.0000    0    12.011   24.725744   32.241373   -9.679555
  89 H     1.0000    0     1.008   26.359790   32.943029  -10.194317
  90 H     1.0000    0     1.008   24.515039   32.440551   -7.848033
  91 H     1.0000    0     1.008   23.364385   33.137293  -10.558467
  92 H     1.0000    0     1.008   30.279082   29.810052   -8.541751

--------------------------------
INTERNAL COORDINATES (ANGSTROEM)
--------------------------------
 Mn     0   0   0     0.000000000000     0.00000000     0.00000000
 Si     1   0   0     3.799999407895     0.00000000     0.00000000
 Si     1   2   0     3.805679425543    62.93558655     0.00000000
 Si     1   2   3     3.973373974345    95.49745152   265.56790703
 Si     1   2   3     3.820091623247   106.15645860   169.94381017
 Si     1   2   3     3.835823201087    87.52491037   109.63763188
 Si     1   2   3     3.888797189363   154.62687211     9.84125525
 C      2   1   3     1.866341822925    29.05940259    58.81068035
 C      8   2   1     1.458445274942   131.83130028   257.11469783
 C      9   8   2     1.426264617804   105.79336839   193.67883355
 H     10   9   8     0.950459352103   124.18850553   180.07479951
 C     10   9   8     1.418715972279   111.75534061     0.18787206
 C      8   2   1     1.418450739363   120.32645831    92.56090344
 H     13   8   2     0.949265705690   124.19814427   348.18932640
 C      5   1   2     1.865107744877    29.94209160   222.38442173
 C     15   5   1     1.454900962265   131.74566341    98.04664295
 C     16  15   5     1.422624061374   108.18917320   171.29875900
 C     17  16  15     1.433510115067   109.35475694   359.51473386
 C     15   5   1     1.414969049131   122.23668271   267.75721060
 H     19  15   5     0.950536911435   124.14545793     7.86227196
 C      2   1   3     1.866539145049   138.84453815    53.28109659
 H     21   2   1     0.978560330281   109.45003905    58.99173181
 H     21   2   1     0.979999540816   109.41941450   299.01564722
 H     21   2   1     0.979341666631   109.42848175   179.06797176
 C      2   1   3     1.874730183253    95.92377822   177.06792411
 H     25   2   1     0.980096622788   109.45666327   151.58430505
 H     25   2   1     0.979473332970   109.48161787    31.55617958
 H     25   2   1     0.980653236368   109.49249250   271.50125623
 C      2   1   3     1.870884159963    93.49628209   285.10957458
 H     29   2   1     0.980772149890   109.48420577    80.08970326
 H     29   2   1     0.979087958255   109.47358224   320.11408286
 H     29   2   1     0.980291686183   109.54316650   200.01993798
 C      3   1   2     1.861932482664   113.33711040   215.42907154
 H     33   3   1     0.979889534591   109.51676478   207.91879817
 H     33   3   1     0.981648236386   109.47080615    87.81946559
 H     33   3   1     0.980335498694   109.55176638   327.90707536
 C      3   1   2     1.861460859110    82.68545508   107.95866655
 H     37   3   1     0.980995851163   109.51637012   171.25294231
 H     37   3   1     0.980695457316   109.48076023    51.28860023
 H     37   3   1     0.979908128347   109.49527199   291.38322211
 C      3   1   2     1.865183620987   133.07673446   359.48811688
 H     41   3   1     0.978660048229   109.57089288    34.52596379
 H     41   3   1     0.980246928075   109.43637118   274.60766688
 H     41   3   1     0.978604220306   109.49783128   154.66185821
 C      4   1   2     1.869498336453   120.23869612   327.24775739
 H     45   4   1     0.979944105549   109.48185965   195.88322958
 H     45   4   1     0.979817605476   109.54448370    75.92584495
 H     45   4   1     0.980335014166   109.48733002   315.83007028
 C      4   1   2     1.847624783337   117.89993188   108.64976422
 H     49   4   1     0.980679687768   109.48815057   162.14782632
 H     49   4   1     0.979761971093   109.46558774    42.12452837
 H     49   4   1     0.980254834214   109.47938204   281.99194790
 C      4   1   2     1.859716776824    87.14424849   218.58735368
 H     53   4   1     0.980571002019   109.46641062    56.81106185
[...]
freq.     192.91  E(vib)   ...       0.36 
freq.     197.05  E(vib)   ...       0.35 
freq.     201.21  E(vib)   ...       0.35 
freq.     202.32  E(vib)   ...       0.35 
freq.     210.23  E(vib)   ...       0.34 
freq.     210.67  E(vib)   ...       0.34 
freq.     213.83  E(vib)   ...       0.34 
freq.     215.08  E(vib)   ...       0.34 
freq.     220.27  E(vib)   ...       0.33 
freq.     222.82  E(vib)   ...       0.33 
freq.     224.68  E(vib)   ...       0.33 
freq.     225.57  E(vib)   ...       0.33 
freq.     228.65  E(vib)   ...       0.32 
freq.     234.61  E(vib)   ...       0.32 
freq.     240.56  E(vib)   ...       0.31 
freq.     244.16  E(vib)   ...       0.31 
freq.     264.54  E(vib)   ...       0.29 
freq.     266.29  E(vib)   ...       0.29 
freq.     270.61  E(vib)   ...       0.29 
freq.     275.13  E(vib)   ...       0.28 
freq.     293.02  E(vib)   ...       0.27 
freq.     300.28  E(vib)   ...       0.26 
freq.     304.35  E(vib)   ...       0.26 
freq.     348.05  E(vib)   ...       0.23 
freq.     352.78  E(vib)   ...       0.22 
freq.     361.10  E(vib)   ...       0.22 
freq.     370.04  E(vib)   ...       0.21 
freq.     373.96  E(vib)   ...       0.21 
freq.     382.49  E(vib)   ...       0.21 
freq.     391.82  E(vib)   ...       0.20 
freq.     436.53  E(vib)   ...       0.17 
freq.     439.20  E(vib)   ...       0.17 
freq.     509.81  E(vib)   ...       0.14 
freq.     515.44  E(vib)   ...       0.13 
freq.     582.25  E(vib)   ...       0.11 
freq.     631.83  E(vib)   ...       0.09 
freq.     632.50  E(vib)   ...       0.09 
freq.     633.36  E(vib)   ...       0.09 
freq.     634.91  E(vib)   ...       0.09 
freq.     641.81  E(vib)   ...       0.09 
freq.     644.86  E(vib)   ...       0.09 
freq.     647.21  E(vib)   ...       0.09 
freq.     654.32  E(vib)   ...       0.08 
freq.     661.99  E(vib)   ...       0.08 
freq.     668.64  E(vib)   ...       0.08 
freq.     672.39  E(vib)   ...       0.08 
freq.     673.64  E(vib)   ...       0.08 
freq.     675.52  E(vib)   ...       0.08 
freq.     675.92  E(vib)   ...       0.08 
freq.     677.47  E(vib)   ...       0.08 
freq.     685.56  E(vib)   ...       0.07 
freq.     686.23  E(vib)   ...       0.07 
freq.     686.85  E(vib)   ...       0.07 
freq.     688.11  E(vib)   ...       0.07 
freq.     690.82  E(vib)   ...       0.07 
freq.     691.40  E(vib)   ...       0.07 
freq.     692.07  E(vib)   ...       0.07 
freq.     693.44  E(vib)   ...       0.07 
freq.     694.12  E(vib)   ...       0.07 
freq.     694.90  E(vib)   ...       0.07 
freq.     695.15  E(vib)   ...       0.07 
freq.     695.79  E(vib)   ...       0.07 
freq.     759.00  E(vib)   ...       0.06 
freq.     760.53  E(vib)   ...       0.06 
freq.     762.13  E(vib)   ...       0.06 
freq.     762.30  E(vib)   ...       0.06 
freq.     763.04  E(vib)   ...       0.06 
freq.     764.41  E(vib)   ...       0.06 
freq.     764.85  E(vib)   ...       0.06 
freq.     765.44  E(vib)   ...       0.06 
freq.     766.35  E(vib)   ...       0.06 
freq.     766.60  E(vib)   ...       0.06 
freq.     767.12  E(vib)   ...       0.06 
freq.     768.53  E(vib)   ...       0.06 
freq.     838.80  E(vib)   ...       0.04 
freq.     840.48  E(vib)   ...       0.04 
freq.     844.79  E(vib)   ...       0.04 
freq.     845.22  E(vib)   ...       0.04 
freq.     845.62  E(vib)   ...       0.04 
freq.     848.35  E(vib)   ...       0.04 
freq.     849.65  E(vib)   ...       0.04 
freq.     851.65  E(vib)   ...       0.04 
freq.     851.86  E(vib)   ...       0.04 
freq.     853.39  E(vib)   ...       0.04 
freq.     854.14  E(vib)   ...       0.04 
freq.     855.10  E(vib)   ...       0.04 
freq.     856.10  E(vib)   ...       0.04 
freq.     858.28  E(vib)   ...       0.04 
freq.     858.48  E(vib)   ...       0.04 
freq.     859.16  E(vib)   ...       0.04 
freq.     860.79  E(vib)   ...       0.04 
freq.     861.79  E(vib)   ...       0.04 
freq.     864.07  E(vib)   ...       0.04 
freq.     874.81  E(vib)   ...       0.04 
freq.     877.89  E(vib)   ...       0.04 
freq.     883.44  E(vib)   ...       0.04 
freq.     915.35  E(vib)   ...       0.03 
freq.     950.21  E(vib)   ...       0.03 
freq.    1000.88  E(vib)   ...       0.02 
freq.    1007.39  E(vib)   ...       0.02 
freq.    1107.79  E(vib)   ...       0.02 
freq.    1109.59  E(vib)   ...       0.02 
freq.    1156.33  E(vib)   ...       0.01 
freq.    1160.19  E(vib)   ...       0.01 
freq.    1213.49  E(vib)   ...       0.01 
freq.    1224.05  E(vib)   ...       0.01 
freq.    1265.49  E(vib)   ...       0.01 
freq.    1266.02  E(vib)   ...       0.01 
freq.    1266.38  E(vib)   ...       0.01 
freq.    1267.17  E(vib)   ...       0.01 
freq.    1267.57  E(vib)   ...       0.01 
freq.    1268.41  E(vib)   ...       0.01 
freq.    1268.60  E(vib)   ...       0.01 
freq.    1269.31  E(vib)   ...       0.01 
freq.    1269.75  E(vib)   ...       0.01 
freq.    1270.13  E(vib)   ...       0.01 
freq.    1271.66  E(vib)   ...       0.01 
freq.    1272.17  E(vib)   ...       0.01 
freq.    1276.17  E(vib)   ...       0.01 
freq.    1277.54  E(vib)   ...       0.01 
freq.    1278.44  E(vib)   ...       0.01 
freq.    1279.52  E(vib)   ...       0.01 
freq.    1280.96  E(vib)   ...       0.01 
freq.    1283.27  E(vib)   ...       0.01 
freq.    1284.56  E(vib)   ...       0.01 
freq.    1286.22  E(vib)   ...       0.01 
freq.    1302.66  E(vib)   ...       0.01 
freq.    1310.85  E(vib)   ...       0.01 
freq.    1372.35  E(vib)   ...       0.01 
freq.    1377.92  E(vib)   ...       0.01 
freq.    1435.86  E(vib)   ...       0.00 
freq.    1437.61  E(vib)   ...       0.00 
freq.    1438.57  E(vib)   ...       0.00 
freq.    1439.61  E(vib)   ...       0.00 
freq.    1439.66  E(vib)   ...       0.00 
freq.    1440.15  E(vib)   ...       0.00 
freq.    1440.66  E(vib)   ...       0.00 
freq.    1441.05  E(vib)   ...       0.00 
freq.    1442.61  E(vib)   ...       0.00 
freq.    1443.16  E(vib)   ...       0.00 
freq.    1444.00  E(vib)   ...       0.00 
freq.    1444.94  E(vib)   ...       0.00 
freq.    1445.23  E(vib)   ...       0.00 
freq.    1446.85  E(vib)   ...       0.00 
freq.    1447.21  E(vib)   ...       0.00 
freq.    1449.72  E(vib)   ...       0.00 
freq.    1450.82  E(vib)   ...       0.00 
freq.    1451.65  E(vib)   ...       0.00 
freq.    1452.05  E(vib)   ...       0.00 
freq.    1453.39  E(vib)   ...       0.00 
freq.    1454.00  E(vib)   ...       0.00 
freq.    1454.99  E(vib)   ...       0.00 
freq.    1455.34  E(vib)   ...       0.00 
freq.    1455.73  E(vib)   ...       0.00 
freq.    1456.68  E(vib)   ...       0.00 
freq.    1457.64  E(vib)   ...       0.00 
freq.    1458.30  E(vib)   ...       0.00 
freq.    1459.71  E(vib)   ...       0.00 
freq.    1460.42  E(vib)   ...       0.00 
freq.    1462.22  E(vib)   ...       0.00 
freq.    1464.44  E(vib)   ...       0.00 
freq.    1465.14  E(vib)   ...       0.00 
freq.    1466.21  E(vib)   ...       0.00 
freq.    1467.09  E(vib)   ...       0.00 
freq.    1468.76  E(vib)   ...       0.00 
freq.    1472.13  E(vib)   ...       0.00 
freq.    1481.54  E(vib)   ...       0.00 
freq.    1485.76  E(vib)   ...       0.00 
freq.    3041.91  E(vib)   ...       0.00 
freq.    3042.52  E(vib)   ...       0.00 
freq.    3044.28  E(vib)   ...       0.00 
freq.    3044.87  E(vib)   ...       0.00 
freq.    3045.16  E(vib)   ...       0.00 
freq.    3045.53  E(vib)   ...       0.00 
freq.    3045.67  E(vib)   ...       0.00 
freq.    3046.02  E(vib)   ...       0.00 
freq.    3046.32  E(vib)   ...       0.00 
freq.    3046.87  E(vib)   ...       0.00 
freq.    3047.06  E(vib)   ...       0.00 
freq.    3047.49  E(vib)   ...       0.00 
freq.    3048.52  E(vib)   ...       0.00 
freq.    3049.07  E(vib)   ...       0.00 
freq.    3050.03  E(vib)   ...       0.00 
freq.    3050.66  E(vib)   ...       0.00 
freq.    3051.00  E(vib)   ...       0.00 
freq.    3051.80  E(vib)   ...       0.00 
freq.    3119.60  E(vib)   ...       0.00 
freq.    3120.72  E(vib)   ...       0.00 
freq.    3120.92  E(vib)   ...       0.00 
freq.    3121.94  E(vib)   ...       0.00 
freq.    3122.12  E(vib)   ...       0.00 
freq.    3122.56  E(vib)   ...       0.00 
freq.    3123.01  E(vib)   ...       0.00 
freq.    3123.19  E(vib)   ...       0.00 
freq.    3123.81  E(vib)   ...       0.00 
freq.    3124.06  E(vib)   ...       0.00 
freq.    3124.25  E(vib)   ...       0.00 
freq.    3124.60  E(vib)   ...       0.00 
freq.    3125.34  E(vib)   ...       0.00 
freq.    3126.07  E(vib)   ...       0.00 
freq.    3127.05  E(vib)   ...       0.00 
freq.    3127.31  E(vib)   ...       0.00 
freq.    3128.57  E(vib)   ...       0.00 
freq.    3128.86  E(vib)   ...       0.00 
freq.    3129.60  E(vib)   ...       0.00 
freq.    3129.64  E(vib)   ...       0.00 
freq.    3132.81  E(vib)   ...       0.00 
freq.    3135.50  E(vib)   ...       0.00 
freq.    3135.78  E(vib)   ...       0.00 
freq.    3136.63  E(vib)   ...       0.00 
freq.    3138.48  E(vib)   ...       0.00 
freq.    3138.51  E(vib)   ...       0.00 
freq.    3141.98  E(vib)   ...       0.00 
freq.    3142.85  E(vib)   ...       0.00 
freq.    3144.72  E(vib)   ...       0.00 
freq.    3145.07  E(vib)   ...       0.00 
freq.    3146.33  E(vib)   ...       0.00 
freq.    3147.73  E(vib)   ...       0.00 
freq.    3148.11  E(vib)   ...       0.00 
freq.    3149.19  E(vib)   ...       0.00 
freq.    3149.88  E(vib)   ...       0.00 
freq.    3151.19  E(vib)   ...       0.00 
freq.    3222.54  E(vib)   ...       0.00 
freq.    3223.98  E(vib)   ...       0.00 
freq.    3230.93  E(vib)   ...       0.00 
freq.    3233.33  E(vib)   ...       0.00 

------------
INNER ENERGY
------------

The inner energy is: U= E(el) + E(ZPE) + E(vib) + E(rot) + E(trans)
    E(el)   - is the total energy from the electronic structure calculation
              = E(kin-el) + E(nuc-el) + E(el-el) + E(nuc-nuc)
    E(ZPE)  - the the zero temperature vibrational energy from the frequency calculation
    E(vib)  - the the finite temperature correction to E(ZPE) due to population
              of excited vibrational states
    E(rot)  - is the rotational thermal energy
    E(trans)- is the translational thermal energy

Summary of contributions to the inner energy U:
Electronic energy                ...  -3988.28689224 Eh
Zero point energy                ...      0.77425502 Eh     485.85 kcal/mol
Thermal vibrational correction   ...      0.05459364 Eh      34.26 kcal/mol
Thermal rotational correction    ...      0.00141627 Eh       0.89 kcal/mol
Thermal translational correction ...      0.00141627 Eh       0.89 kcal/mol
-----------------------------------------------------------------------
Total thermal energy                  -3987.45521104 Eh


Summary of corrections to the electronic energy:
(perhaps to be used in another calculation)
Total thermal correction                  0.05742618 Eh      36.04 kcal/mol
Non-thermal (ZPE) correction              0.77425502 Eh     485.85 kcal/mol
-----------------------------------------------------------------------
Total correction                          0.83168120 Eh     521.89 kcal/mol


--------
ENTHALPY
--------

The enthalpy is H = U + kB*T
                kB is Boltzmann's constant
Total thermal energy              ...  -3987.45521104 Eh 
Thermal Enthalpy correction       ...      0.00094421 Eh       0.59 kcal/mol
-----------------------------------------------------------------------
Total Enthalpy                    ...  -3987.45426683 Eh


Note: Only C1 symmetry has been detected, increase convergence thresholds 
      if your molecule has a higher symmetry. Symmetry factor of 1.0 is   
      used for the rotational entropy correction. 
 

Note: Rotational entropy computed according to Herzberg 
Infrared and Raman Spectra, Chapter V,1, Van Nostrand Reinhold, 1945 
Point Group:  C1, Symmetry Number:   1  
Rotational constants in cm-1:     0.002881     0.002711     0.002485 

Vibrational entropy computed according to the QRRHO of S. Grimme
Chem.Eur.J. 2012 18 9955 using a reference frequency of 100.0 cm-1


-------
ENTROPY
-------

The entropy contributions are T*S = T*(S(el)+S(vib)+S(rot)+S(trans))
     S(el)   - electronic entropy
     S(vib)  - vibrational entropy
     S(rot)  - rotational entropy
     S(trans)- translational entropy
The entropies will be listed as multiplied by the temperature to get
units of energy

Electronic entropy                ...      0.00130891 Eh      0.82 kcal/mol
Vibrational entropy               ...      0.09922900 Eh     62.27 kcal/mol
Rotational entropy                ...      0.01789392 Eh     11.23 kcal/mol
Translational entropy             ...      0.02145125 Eh     13.46 kcal/mol
-----------------------------------------------------------------------
Final entropy term                ...      0.13988308 Eh     87.78 kcal/mol

In case the symmetry of your molecule has not been determined correctly
or in case you have a reason to use a different symmetry number we print 
out the resulting rotational entropy values for sn=1,12:

 non-linear molecules -----------------------------------
|  sn= 1 | S(rot)=       0.01789392 Eh     11.23 kcal/mol|
|  sn= 2 | S(rot)=       0.01723947 Eh     10.82 kcal/mol|
|  sn= 3 | S(rot)=       0.01685663 Eh     10.58 kcal/mol|
|  sn= 4 | S(rot)=       0.01658501 Eh     10.41 kcal/mol|
|  sn= 5 | S(rot)=       0.01637432 Eh     10.28 kcal/mol|
|  sn= 6 | S(rot)=       0.01620218 Eh     10.17 kcal/mol|
|  sn= 7 | S(rot)=       0.01605663 Eh     10.08 kcal/mol|
|  sn= 8 | S(rot)=       0.01593055 Eh     10.00 kcal/mol|
|  sn= 9 | S(rot)=       0.01581934 Eh      9.93 kcal/mol|
|  sn=10 | S(rot)=       0.01571987 Eh      9.86 kcal/mol|
|  sn=11 | S(rot)=       0.01562987 Eh      9.81 kcal/mol|
|  sn=12 | S(rot)=       0.01554772 Eh      9.76 kcal/mol|
 linear molecules ---------------------------------------
|  Dinfh | S(rot)=       0.01098842 Eh      6.90 kcal/mol|
|  Cinfv | S(rot)=       0.01164288 Eh      7.31 kcal/mol|
 --------------------------------------------------------


-------------------
GIBBS FREE ENERGY
-------------------

The Gibbs free energy is G = H - T*S

Total enthalpy                    ...  -3987.45426683 Eh 
Total entropy correction          ...     -0.13988308 Eh    -87.78 kcal/mol
-----------------------------------------------------------------------
Final Gibbs free energy         ...  -3987.59414991 Eh

For completeness - the Gibbs free energy minus the electronic energy
G-E(el)                           ...      0.69274233 Eh    434.70 kcal/mol


Maximum memory used throughout the entire PROP-calculation: 2087.9 MB

--------------------------------
SUGGESTED CITATIONS FOR THIS RUN
--------------------------------

Below you find a list of papers that are relevant to this ORCA run
We neither can nor want to force you to cite these papers, but we appreciate if you do
You receive ORCA, which is the product of decades of hard work by many enthusiastic individuals, for free
The only thing we kindly ask in return is that you cite our papers,
We deeply appreciate it, if you show your appreciation for ORCA by not just citing the generic ORCA reference.

Please note that relegating all ORCA citations to the supporting information does *not* help us.
SI sections are not indexed - citations you put there will not count into any citation statistics
But we need these citations in order to attract the funding resources that allow us to do what we are doing

Therefore, if you are a happy ORCA user, please consider citing a few of the papers listed below in the main body of your paper

In addition to the list printed below, the program has created the file BUBGEL-S6.bibtex that contains the list in bibtex format
You can import this file easily into all common literature databanks and citation aid programs


List of essential papers. We consider these as the minimum necessary citations

  1. Neese,F.
     Software update: the ORCA program system, version 5.0
     WIRES Comput. Molec. Sci., 2022 12(1)e1606
     doi.org/10.1002/wcms.1606

List of papers to cite with high priority. The work reported in these papers was absolutely
necessary for this run to complete.
Our perspective: the developers of density functionals and basis sets usually get cited in chemistry papers
Good! But without the algorithms to do something with them, the functionals or basis sets would not do anything.
Hence, in our opinion, the algorithm design and method developments papers are equally worthy of getting cited

  1. Neese,F.
     An improvement of the resolution of the identity approximation for the formation of the Coulomb matrix
     J. Comp. Chem., 2003 24(14)1740-1747
     doi.org/10.1002/jcc.10318
  2. Neese,F.; Wennmohs,F.; Hansen,A.; Becker,U.
     Efficient, approximate and parallel Hartree-Fock and hybrid DFT calculations. A 'chain-of-spheres' algorithm for the Hartree-Fock exchange
     Chem. Phys., 2009 356(1-3)98-109
     doi.org/10.1016/j.chemphys.2008.10.036
  3. Bykov,D.; Petrenko,T.; Izsak,R.; Kossmann,S.; Becker,U.; Valeev,E.; Neese,F.
     Efficient implementation of the analytic second derivatives of Hartree-Fock and hybrid DFT energies: a detailed analysis of different approximations
     Molec. Phys., 2015 113 1961-1977
     doi.org/10.1080/00268976.2015.1025114
  4. Helmich-Paris,B.; de Souza,B.; Neese,F.; Izsák,R.
     An improved chain of spheres for exchange algorithm
     J. Chem. Phys., 2021 155 104109
     doi.org/doi: 10.1063/5.0058766.
  5. Neese,F.
     The SHARK Integral Generation and Digestion System
     J. Comp. Chem., 2022  1-16
     doi.org/10.1002/jcc.26942

List of suggested additional citations. These are papers that are important in the 'surrounding' of 
of this run, or papers that preceded the highly important papers. If you like your results we are grateful for a citation.

  1. Izsak,R.; Neese,F.
     An overlap fitted chain of spheres exchange method
     J. Chem. Phys., 2011 135 144105
     doi.org/10.1063/1.3646921
  2. Izsak,R.; Hansen,A.; Neese,F.
     The resolution of identity and chain of spheres approximations for the LPNO-CCSD singles Fock term
     Molec. Phys., 2012 110 2413-2417
     doi.org/10.1080/00268976.2012.687466
  3. Neese,F.
     The ORCA program system
     WIRES Comput. Molec. Sci., 2012 2(1)73-78
     doi.org/10.1002/wcms.81
  4. Izsak,R.; Neese,F.; Klopper,W.
     Robust fitting techniques in the chain of spheres approximation to the Fock exchange: The role of the complementary space
     J. Chem. Phys., 2013 139 
     doi.org/10.1063/1.4819264
  5. Neese,F.
     Software update: the ORCA program system, version 4.0
     WIRES Comput. Molec. Sci., 2018 8(1)1-6
     doi.org/10.1002/wcms.1327
  6. Neese,F.; Wennmohs,F.; Becker,U.; Riplinger,C.
     The ORCA quantum chemistry program package
     J. Chem. Phys., 2020 152 Art. No. L224108
     doi.org/10.1063/5.0004608

List of optional additional citations

  1. Neese,F.
     Approximate second-order SCF convergence for spin unrestricted wavefunctions
     Chem. Phys. Lett., 2000 325(1-3)93-98
     doi.org/10.1016/s0009-2614(00)00662-x

Timings for individual modules:

Sum of individual times          ...    76258.424 sec (=1270.974 min)
Startup calculation              ...      794.043 sec (=  13.234 min)   1.0 %
SCF iterations                   ...    17038.608 sec (= 283.977 min)  22.3 %
Property integrals               ...    15217.862 sec (= 253.631 min)  20.0 %
SCF Response                     ...    37277.360 sec (= 621.289 min)  48.9 %
Property calculations            ...     3457.543 sec (=  57.626 min)   4.5 %
SCF Gradient evaluation          ...     2467.673 sec (=  41.128 min)   3.2 %
Geometry relaxation              ...        5.335 sec (=   0.089 min)   0.0 %
                             ****ORCA TERMINATED NORMALLY****
TOTAL RUN TIME: 0 days 21 hours 11 minutes 37 seconds 383 msec
