
                                 *****************
                                 * O   R   C   A *
                                 *****************

                                            #,                                       
                                            ###                                      
                                            ####                                     
                                            #####                                    
                                            ######                                   
                                           ########,                                 
                                     ,,################,,,,,                         
                               ,,#################################,,                 
                          ,,##########################################,,             
                       ,#########################################, ''#####,          
                    ,#############################################,,   '####,        
                  ,##################################################,,,,####,       
                ,###########''''           ''''###############################       
              ,#####''   ,,,,##########,,,,          '''####'''          '####       
            ,##' ,,,,###########################,,,                        '##       
           ' ,,###''''                  '''############,,,                           
         ,,##''                                '''############,,,,        ,,,,,,###''
      ,#''                                            '''#######################'''  
     '                                                          ''''####''''         
             ,#######,   #######,   ,#######,      ##                                
            ,#'     '#,  ##    ##  ,#'     '#,    #''#        ,####,   ,####,        
            ##       ##  ##   ,#'  ##            #'  '#       #'       #'  '#        
            ##       ##  #######   ##           ,######,      #####,   #    #        
            '#,     ,#'  ##    ##  '#,     ,#' ,#      #,     #,   #   #,  ,#        
             '#######'   ##     ##  '#######'  #'      '#     '####' # '####'        



                #########################################################
                #                        -***-                          #
                #          Department of theory and spectroscopy        #
                #                                                       #
                #                      Frank Neese                      #
                #                                                       #
                #     Directorship, Architecture, Infrastructure        #
                #                    SHARK, DRIVERS                     #
                #        Core code/Algorithms in most modules           #
                #                                                       #
                #        Max Planck Institute fuer Kohlenforschung      #
                #                Kaiser Wilhelm Platz 1                 #
                #                 D-45470 Muelheim/Ruhr                 #
                #                      Germany                          #
                #                                                       #
                #                  All rights reserved                  #
                #                        -***-                          #
                #########################################################


                         Program Version 6.0.1  -  RELEASE   -


 With contributions from (in alphabetic order):
[Max-Planck-Institut fuer Kohlenforschung]                               
  Daniel Aravena         : Magnetic Suceptibility                        
  Michael Atanasov       : Ab Initio Ligand Field Theory (pilot matlab implementation)
  Alexander A. Auer      : GIAO ZORA, VPT2 properties, NMR spectrum      
  Ute Becker             : All parallelization in ORCA, NUMFREQ, NUMCALC 
  Giovanni Bistoni       : ED, misc. LED, open-shell LED, HFLD           
  Martin Brehm           : Molecular dynamics                            
  Dmytro Bykov           : pre 5.0 version of the SCF Hessian            
  Marcos Casanova-Páez   : Triplet and SCS-CIS(D). UHF-(DLPNO)-IP/EA/STEOM-CCSD. UHF-CVS-IP/STEOM-CCSD   
  Vijay G. Chilkuri      : MRCI spin determinant printing, contributions to CSF-ICE 
  Pauline Colinet        : FMM embedding                                 
  Dipayan Datta          : RHF DLPNO-CCSD density                        
  Achintya Kumar Dutta   : EOM-CC, STEOM-CC                              
  Nicolas Foglia         : Exact transition moments, OPA infrastructure, MCD improvements    
  Dmitry Ganyushin       : Spin-Orbit,Spin-Spin,Magnetic field MRCI      
  Miquel Garcia-Rates    : C-PCM and meta-GGA Hessian, CCSD/C-PCM, Gaussian charge scheme 
  Tiago L. C. Gouveia    : GS-ROHF, GS-ROCIS                             
  Yang Guo               : DLPNO-NEVPT2, F12-NEVPT2, CIM, IAO-localization        
  Andreas Hansen         : Spin unrestricted coupled pair/coupled cluster methods 
  Ingolf Harden          : AUTO-CI MPn and infrastructure                
  Benjamin Helmich-Paris : MC-RPA, TRAH-(SCF,CASSCF), AVAS, COSX integrals, SCF dyn. polar. 
  Lee Huntington         : MR-EOM, pCC                                   
  Robert Izsak           : Overlap fitted RIJCOSX, COSX-SCS-MP3, EOM     
  Riya Kayal             : Wick's Theorem for AUTO-CI, AUTO-CI UHF-CCSDT 
  Emily Kempfer          : AUTO-CI, RHF CISDT and CCSDT                  
  Christian Kollmar      : KDIIS, OOCD, Brueckner-CCSD(T), CCSD density, CASPT2, CASPT2-K, improved NEVPT2 
  Axel Koslowski         : Symmetry handling                             
  Simone Kossmann        : meta-GGA functionals, TD-DFT gradient, OOMP2, (MP2 Hessian; deprecated post 5.0) 
  Lucas Lang             : DCDCAS                                        
  Marvin Lechner         : AUTO-CI (C++ implementation), FIC-MRCC        
  Spencer Leger          : CASSCF response                               
  Dagmar Lenk            : GEPOL surface, SMD, ORCA-2-JSON               
  Dimitrios Liakos       : Extrapolation schemes; Compound Job, initial MDCI parallelization 
  Dimitrios Manganas     : Further ROCIS development; embedding schemes. LFT, Crystal Embedding 
  Dimitrios Pantazis     : SARC Basis sets                               
  Anastasios Papadopoulos: AUTO-CI, single reference methods and gradients 
  Taras Petrenko         : pre 6.0 DFT Hessian and TD-DFT gradient, (ASA, deprecated), ECA, 1-Electron XAS/XES, NRVS 
  Peter Pinski           : DLPNO-MP2, DLPNO-MP2 Gradient                 
  Christoph Reimann      : Effective Core Potentials                     
  Marius Retegan         : Local ZFS, SOC                                
  Christoph Riplinger    : Optimizer, TS searches, QM/MM, DLPNO-CCSD(T), (RO)-DLPNO pert. Triples 
  Michael Roemelt        : Original ROCIS implementation                 
  Masaaki Saitow         : Open-shell DLPNO-CCSD energy and density      
  Barbara Sandhoefer     : DKH picture change effects                    
  Kantharuban Sivalingam : CASSCF convergence/infrastructure, NEVPT2 and variants, FIC-MRCI 
  Bernardo de Souza      : ESD, SOC TD-DFT                               
  Georgi L. Stoychev     : AutoAux, RI-MP2 NMR, DLPNO-MP2 response, X2C  
  Van Anh Tran           : RI-MP2 g-tensors                              
  Willem Van den Heuvel  : Paramagnetic NMR                              
  Zikuan Wang            : NOTCH, Electric field optimization            
  Frank Wennmohs         : Technical directorship and infrastructure     
  Hang Xu                : AUTO-CI-Response properties                   
                                                                         
[FACCTs GmbH]                                                            
  Markus Bursch, Miquel Garcia-Rates, Christoph Riplinger, Bernardo de Souza, Georgi L. Stoychev 
                                                                 
  APM, Basis sets (HGBS, AHGBS, def-TZVP (Ac-Lr), def2-XVPD (La-Lu)), CI-OPT, improved COSX, DLPNO-Multilevel,           
  DOCKER, DRACO, updates on ESD, GOAT, IRC, LR-CPCM, MBIS, meta-GGA TD-DFT gradient, ML-optimized integration grids, 
  MM, NACMEs, nearIR, NEB, NEB-TS, NL-DFT gradient (VV10), 2- and 3-layer-ONIOM, interface openCOSMO-RS, QMMM,   
  Crystal-QMMM, SF, symmetry and pop. for TD-DFT, r2SCAN hybrids, SOLVATOR                                   
                                                                         
[Other institutions]                                                     
  V. Asgeirsson          : NEB                                           
  Christoph Bannwarth    : sTDA-DFT, sTD-DFT, PBEh-3c, B97-3c, D3        
  Sebastian Ehlert       : rSCAN, r2SCAN, r2SCAN-3c, D4, dhf basis sets  
  Marvin Friede          : D4 for Fr, Ra, Ac-Lr                          
  Lars Goerigk           : TD-DFT with DH, B97 family of functionals     
  Stefan Grimme          : VdW corrections, initial TS optimization, DFT functionals, gCP, sTDA/sTD-DF 
  Waldemar Hujo          : DFT-NL                                        
  H. Jonsson             : NEB                                           
  Holger Kruse           : gCP                                           
  Marcel Mueller         : wB97X-3c, vDZP basis set                      
  Hagen Neugebauer       : wr2SCAN                                       
  Tobias Risthaus        : range-separated hybrid DFT                    
  Lukas Wittmann         : regularized MP2, r2SCAN double-hybrids, wr2SCAN        
                                                                         
We gratefully acknowledge several colleagues who have allowed us to      
interface, adapt or use parts of their codes:                            
  Ed Valeev, F. Pavosevic, A. Kumar             : LibInt (2-el integral package), F12 methods 
  Garnet Chan, S. Sharma, J. Yang, R. Olivares  : DMRG                   
  Ulf Ekstrom                                   : XCFun DFT Library      
  Mihaly Kallay                                 : mrcc  (arbitrary order and MRCC methods)
  Frank Weinhold                                : gennbo (NPA and NBO analysis)           
  Simon Mueller                                 : openCOSMO-RS                            
  Christopher J. Cramer and Donald G. Truhlar   : smd solvation model                     
  S Lehtola, MJT Oliveira, MAL Marques          : LibXC Library                           
  Liviu Ungur et al                             : ANISO software                          


 Your calculation uses the libint2 library for the computation of 2-el integrals
 For citations please refer to: http://libint.valeyev.net

 Your ORCA version has been built with support for libXC version: 6.2.2
 For citations please refer to: https://libxc.gitlab.io

 This ORCA versions uses:
   CBLAS   interface :  Fast vector & matrix operations
   LAPACKE interface :  Fast linear algebra routines
   SCALAPACK package :  Parallel linear algebra routines
   Shared memory     :  Shared parallel matrices
   BLAS/LAPACK       :  OpenBLAS 0.3.27  USE64BITINT DYNAMIC_ARCH NO_AFFINITY Cooperlake SINGLE_THREADED
        Core in use  :  Cooperlake
   Copyright (c) 2011-2014, The OpenBLAS Project


NOTE: MaxCore=3600 MB was set to SCF,MP2,MDCI,CIPSI,MRCI and CIS
      => If you want to overwrite this, your respective input block should be placed after the MaxCore statement
Warning: RI is on but no J-basis has been assigned. Assigning Def2/J (nothing to worry about!)
================================================================================

----- Orbital basis set information -----
Your calculation utilizes the basis: def2-TZVP
   F. Weigend and R. Ahlrichs, Phys. Chem. Chem. Phys. 7, 3297 (2005).

----- AuxJ basis set information -----
Your calculation utilizes the auxiliary basis: def2/J
   F. Weigend, Phys. Chem. Chem. Phys. 8, 1057 (2006).

================================================================================
                                        WARNINGS
                       Please study these warnings very carefully!
================================================================================


WARNING: your system is open-shell and RHF/RKS was chosen
  ===> : WILL SWITCH to UHF/UKS


WARNING: Geometry Optimization
  ===> : Switching off AutoStart
         For restart on a previous wavefunction, please use MOREAD

================================================================================
                                       INPUT FILE
================================================================================
NAME = EQEGEN-S6.inp
|  1> ! PBE0 def2-TZVP  Opt Freq DEFGRID3
|  2> 
|  3> %maxcore 3600
|  4> 
|  5> %pal
|  6>     nprocs 16
|  7> end
|  8> 
|  9> *xyz 0 4
| 10> Mn -6.9342 12.0105 11.222
| 11> S -4.0858 12.7789 15.0117
| 12> N -5.6112 12.8128 12.7302
| 13> N -5.8403 13.3388 9.6408
| 14> N -5.455 10.3074 10.8034
| 15> C -4.9455 12.8176 13.6482
| 16> C -4.9635 14.2756 9.9505
| 17> H -4.7763 14.4222 10.8506
| 18> C -4.3103 15.0515 9.0158
| 19> H -3.7043 15.6977 9.2952
| 20> C -4.5489 14.8738 7.6815
| 21> C -5.4184 13.8961 7.3628
| 22> H -5.5835 13.7015 6.4684
| 23> C -6.0661 13.1923 8.3335
| 24> H -6.7054 12.5702 8.0686
| 25> C -3.8596 15.6833 6.6333
| 26> H -3.7542 15.1548 5.8388
| 27> H -2.9942 15.9523 6.9543
| 28> H -4.3811 16.4616 6.4325
| 29> C -4.137 10.4948 10.9358
| 30> H -3.8277 11.3379 11.176
| 31> C -3.2244 9.4955 10.7327
| 32> H -2.3174 9.6732 10.8225
| 33> C -3.6516 8.2176 10.3949
| 34> C -4.994 8.0398 10.2805
| 35> H -5.3283 7.1967 10.0729
| 36> C -5.8678 9.0919 10.4656
| 37> H -6.7775 8.943 10.3501
| 38> C -2.6905 7.091 10.2176
| 39> H -2.2855 6.8796 11.0626
| 40> H -2.0068 7.348 9.5926
| 41> H -3.1565 6.3223 9.8843
| 42> S -9.7827 11.242 7.4323
| 43> N -8.2573 11.2082 9.7138
| 44> N -8.0282 10.6821 12.8032
| 45> N -8.4135 13.7136 11.6406
| 46> C -8.923 11.2034 8.7958
| 47> C -8.905 9.7453 12.4935
| 48> H -9.0922 9.5988 11.5934
| 49> C -9.5582 8.9694 13.4282
| 50> H -10.1642 8.3233 13.1488
| 51> C -9.3196 9.1472 14.7625
| 52> C -8.4501 10.1248 15.0812
| 53> H -8.285 10.3194 15.9756
| 54> C -7.8024 10.8286 14.1105
| 55> H -7.1631 11.4508 14.3754
| 56> C -10.0089 8.3377 15.8107
| 57> H -10.1143 8.8661 16.6052
| 58> H -10.8743 8.0686 15.4897
| 59> H -9.4874 7.5594 16.0115
| 60> C -9.7315 13.5262 11.5082
| 61> H -10.0408 12.6831 11.268
| 62> C -10.6441 14.5255 11.7113
| 63> H -11.5511 14.3477 11.6215
| 64> C -10.2169 15.8034 12.0491
| 65> C -8.8745 15.9811 12.1635
| 66> H -8.5402 16.8243 12.3711
| 67> C -8.0007 14.929 11.9784
| 68> H -7.091 15.0779 12.0939
| 69> C -11.178 16.93 12.2264
| 70> H -11.583 17.1413 11.3814
| 71> H -11.8617 16.6729 12.8514
| 72> H -10.712 17.6986 12.5597
| 73> *
| 74> 
| 75>                          ****END OF INPUT****
================================================================================

                       *****************************
                       * Geometry Optimization Run *
                       *****************************

Geometry optimization settings:
Update method            Update   .... BFGS
Choice of coordinates    CoordSys .... (2022) Redundant Internals
Initial Hessian          InHess   .... Almloef's Model
Max. no of cycles        MaxIter  .... 189

Convergence Tolerances:
Energy Change            TolE     ....  5.0000e-06 Eh
Max. Gradient            TolMAXG  ....  3.0000e-04 Eh/bohr
RMS Gradient             TolRMSG  ....  1.0000e-04 Eh/bohr
Max. Displacement        TolMAXD  ....  4.0000e-03 bohr
RMS Displacement         TolRMSD  ....  2.0000e-03 bohr
Strict Convergence                .... False

------------------------------------------------------------------------------
                        ORCA OPTIMIZATION COORDINATE SETUP
------------------------------------------------------------------------------

The optimization will be done in redundant internal coordinates (2022)
Making redundant internal coordinates   ...  (2022 redundants) done
Evaluating the initial hessian          ...  (Almloef) done
Evaluating the coordinates              ...  done
Calculating the B-matrix                .... done
Calculating the G-matrix                .... done
Diagonalizing the G-matrix              .... done
Small eigenvalue found = 2.095e-03
Small eigenvalue found = 3.306e-03
Small eigenvalue found = 3.694e-03
Small eigenvalue found = 5.845e-03
Small eigenvalue found = 7.656e-03
Small eigenvalue found = 9.591e-03
Small eigenvalue found = 1.295e-02
Small eigenvalue found = 1.814e-02
The first mode is                       ....  162
The number of degrees of freedom        ....  183

    -----------------------------------------------------------------
                    Redundant Internal Coordinates


    -----------------------------------------------------------------
         Definition                    Initial Value    Approx d2E/dq
    -----------------------------------------------------------------
      1. B(N   2,Mn  0)                  2.1607         0.333716   
      2. B(N   3,Mn  0)                  2.3369         0.174683   
      3. B(N   4,Mn  0)                  2.2943         0.204291   
      4. B(C   5,N   2)                  1.1340         1.433323   
      5. B(C   5,S   1)                  1.6124         0.744287   
      6. B(C   6,N   3)                  1.3200         0.723810   
      7. B(H   7,C   6)                  0.9310         0.645857   
      8. B(C   8,C   6)                  1.3793         0.649943   
      9. B(H   9,C   8)                  0.9289         0.650775   
     10. B(C  10,C   8)                  1.3671         0.679722   
     11. B(C  11,C  10)                  1.3467         0.732626   
     12. B(H  12,C  11)                  0.9301         0.647947   
     13. B(C  13,C  11)                  1.3628         0.690561   
     14. B(C  13,N   3)                  1.3347         0.685597   
     15. B(H  14,C  13)                  0.9305         0.646917   
     16. B(C  15,C  10)                  1.4930         0.427913   
     17. B(H  16,C  15)                  0.9600         0.580480   
     18. B(H  17,C  15)                  0.9614         0.577527   
     19. B(H  18,C  15)                  0.9581         0.584516   
     20. B(C  19,N   4)                  1.3378         0.677828   
     21. B(H  20,C  19)                  0.9296         0.649098   
     22. B(C  21,C  19)                  1.3685         0.676240   
     23. B(H  22,C  21)                  0.9286         0.651528   
     24. B(C  23,C  21)                  1.3891         0.626834   
     25. B(C  24,C  23)                  1.3589         0.700295   
     26. B(H  25,C  24)                  0.9304         0.647189   
     27. B(C  26,C  24)                  1.3801         0.647915   
     28. B(C  26,N   4)                  1.3274         0.704324   
     29. B(H  27,C  26)                  0.9290         0.650530   
     30. B(C  28,C  23)                  1.4914         0.430434   
     31. B(H  29,C  28)                  0.9606         0.579272   
     32. B(H  30,C  28)                  0.9613         0.577747   
     33. B(H  31,C  28)                  0.9587         0.583273   
     34. B(N  33,Mn  0)                  2.1608         0.333641   
     35. B(N  34,Mn  0)                  2.3370         0.174617   
     36. B(N  35,Mn  0)                  2.2944         0.204242   
     37. B(C  36,N  33)                  1.1340         1.433323   
     38. B(C  36,S  32)                  1.6124         0.744294   
     39. B(C  37,N  34)                  1.3200         0.723810   
     40. B(H  38,C  37)                  0.9310         0.645895   
     41. B(C  39,C  37)                  1.3793         0.649943   
     42. B(H  40,C  39)                  0.9288         0.650942   
     43. B(C  41,C  39)                  1.3671         0.679690   
     44. B(C  42,C  41)                  1.3466         0.732821   
     45. B(H  43,C  42)                  0.9301         0.647947   
     46. B(C  44,C  42)                  1.3628         0.690561   
     47. B(C  44,N  34)                  1.3347         0.685597   
     48. B(H  45,C  44)                  0.9306         0.646758   
     49. B(C  46,C  41)                  1.4930         0.427913   
     50. B(H  47,C  46)                  0.9600         0.580597   
     51. B(H  48,C  46)                  0.9614         0.577467   
     52. B(H  49,C  46)                  0.9581         0.584516   
     53. B(C  50,N  35)                  1.3378         0.677828   
     54. B(H  51,C  50)                  0.9296         0.649098   
     55. B(C  52,C  50)                  1.3685         0.676240   
     56. B(H  53,C  52)                  0.9286         0.651482   
     57. B(C  54,C  52)                  1.3891         0.626834   
     58. B(C  55,C  54)                  1.3589         0.700329   
     59. B(H  56,C  55)                  0.9305         0.646973   
     60. B(C  57,C  55)                  1.3801         0.647915   
     61. B(C  57,N  35)                  1.3273         0.704561   
     62. B(H  58,C  57)                  0.9290         0.650530   
     63. B(C  59,C  54)                  1.4914         0.430434   
     64. B(H  60,C  59)                  0.9606         0.579319   
     65. B(H  61,C  59)                  0.9613         0.577690   
     66. B(H  62,C  59)                  0.9586         0.583444   
     67. A(N  33,Mn  0,N  35)           90.4677         0.396519   
     68. A(N   4,Mn  0,N  33)           89.5308         0.396535   
     69. A(N   2,Mn  0,N   4)           90.4710         0.396551   
     70. A(N   3,Mn  0,N  33)           91.4556         0.385828   
     71. A(N   4,Mn  0,N  34)           90.1895         0.354614   
     72. A(N   2,Mn  0,N  35)           89.5306         0.396535   
     73. A(N   2,Mn  0,N  34)           91.4567         0.385817   
     74. A(N   2,Mn  0,N   3)           88.5456         0.385843   
     75. A(N   3,Mn  0,N   4)           89.8102         0.354637   
     76. A(N   3,Mn  0,N  35)           90.1909         0.354622   
     77. A(N  33,Mn  0,N  34)           88.5421         0.385802   
     78. A(N  34,Mn  0,N  35)           89.8093         0.354599   
     79. A(Mn  0,N   2,C   5)          157.8330         0.501873   
     80. A(Mn  0,N   3,C   6)          123.7512         0.394512   
     81. A(Mn  0,N   3,C  13)          121.4087         0.390785   
     82. A(C   6,N   3,C  13)          114.8399         0.448607   
     83. A(Mn  0,N   4,C  19)          120.8729         0.400866   
     84. A(Mn  0,N   4,C  26)          121.7138         0.403584   
     85. A(C  19,N   4,C  26)          117.3765         0.445472   
     86. L(S   1,C   5,N   2,Mn  0, 2) 169.0141         0.550441   
     87. L(S   1,C   5,N   2,Mn  0, 1) 177.2767         0.550441   
     88. A(N   3,C   6,H   7)          118.1757         0.398391   
     89. A(N   3,C   6,C   8)          123.6994         0.447234   
     90. A(H   7,C   6,C   8)          118.1249         0.393449   
     91. A(H   9,C   8,C  10)          119.8586         0.397081   
     92. A(C   6,C   8,C  10)          120.3752         0.445105   
     93. A(C   6,C   8,H   9)          119.7662         0.393973   
     94. A(C   8,C  10,C  11)          115.9796         0.454889   
     95. A(C  11,C  10,C  15)          121.7072         0.418504   
     96. A(C   8,C  10,C  15)          122.2883         0.412962   
     97. A(C  10,C  11,H  12)          119.6098         0.402043   
     98. A(H  12,C  11,C  13)          119.5080         0.397881   
     99. A(C  10,C  11,C  13)          120.8811         0.456202   
    100. A(C  11,C  13,H  14)          117.9713         0.397770   
    101. A(N   3,C  13,H  14)          117.9328         0.394730   
    102. A(N   3,C  13,C  11)          124.0959         0.447752   
    103. A(H  17,C  15,H  18)          109.4279         0.339642   
    104. A(H  16,C  15,H  18)          109.4810         0.339932   
    105. A(C  10,C  15,H  18)          109.6496         0.359783   
    106. A(C  10,C  15,H  16)          109.4645         0.359358   
    107. A(C  10,C  15,H  17)          109.4428         0.359046   
    108. A(H  16,C  15,H  17)          109.3611         0.339249   
    109. A(H  20,C  19,C  21)          118.6033         0.396543   
    110. A(N   4,C  19,C  21)          122.6850         0.445135   
    111. A(N   4,C  19,H  20)          118.7117         0.394174   
    112. A(H  22,C  21,C  23)          119.9962         0.391563   
    113. A(C  19,C  21,C  23)          120.1838         0.441789   
    114. A(C  19,C  21,H  22)          119.8200         0.396803   
    115. A(C  24,C  23,C  28)          121.8520         0.415589   
    116. A(C  21,C  23,C  28)          121.7109         0.407499   
    117. A(C  21,C  23,C  24)          116.3992         0.444591   
    118. A(H  25,C  24,C  26)          119.5529         0.393376   
    119. A(C  23,C  24,C  26)          120.9572         0.447263   
    120. A(C  23,C  24,H  25)          119.4898         0.398779   
    121. A(C  24,C  26,H  27)          118.7584         0.393731   
    122. A(N   4,C  26,H  27)          118.8769         0.396988   
    123. A(N   4,C  26,C  24)          122.3648         0.444777   
    124. A(H  30,C  28,H  31)          109.5133         0.339543   
    125. A(H  29,C  28,H  31)          109.5296         0.339693   
    126. A(C  23,C  28,H  31)          109.4974         0.360012   
    127. A(H  29,C  28,H  30)          109.3230         0.339153   
    128. A(C  23,C  28,H  30)          109.4911         0.359429   
    129. A(C  23,C  28,H  29)          109.4728         0.359591   
    130. A(Mn  0,N  33,C  36)          157.8331         0.501852   
    131. A(C  37,N  34,C  44)          114.8399         0.448607   
    132. A(Mn  0,N  34,C  44)          121.4063         0.390759   
    133. A(Mn  0,N  34,C  37)          123.7536         0.394486   
    134. A(C  50,N  35,C  57)          117.3779         0.445499   
    135. A(Mn  0,N  35,C  57)          121.7106         0.403591   
    136. A(Mn  0,N  35,C  50)          120.8748         0.400849   
    137. L(S  32,C  36,N  33,Mn  0, 2) 190.9897         0.550441   
    138. L(S  32,C  36,N  33,Mn  0, 1) 177.2797         0.550441   
    139. A(H  38,C  37,C  39)          118.1293         0.393453   
    140. A(N  34,C  37,C  39)          123.6994         0.447234   
    141. A(N  34,C  37,H  38)          118.1712         0.398395   
    142. A(H  40,C  39,C  41)          119.8632         0.397095   
    143. A(C  37,C  39,C  41)          120.3721         0.445101   
    144. A(C  37,C  39,H  40)          119.7646         0.393990   
    145. A(C  42,C  41,C  46)          121.7064         0.418524   
    146. A(C  39,C  41,C  46)          122.2852         0.412958   
    147. A(C  39,C  41,C  42)          115.9837         0.454907   
    148. A(H  43,C  42,C  44)          119.5080         0.397881   
    149. A(C  41,C  42,C  44)          120.8804         0.456224   
    150. A(C  41,C  42,H  43)          119.6105         0.402062   
    151. A(C  42,C  44,H  45)          117.9728         0.397753   
    152. A(N  34,C  44,H  45)          117.9314         0.394713   
    153. A(N  34,C  44,C  42)          124.0959         0.447752   
    154. A(H  48,C  46,H  49)          109.4222         0.339636   
    155. A(H  47,C  46,H  49)          109.4770         0.339943   
    156. A(C  41,C  46,H  49)          109.6496         0.359783   
    157. A(H  47,C  46,H  48)          109.3633         0.339255   
    158. A(C  41,C  46,H  48)          109.4456         0.359040   
    159. A(C  41,C  46,H  47)          109.4691         0.359371   
    160. A(H  51,C  50,C  52)          118.6033         0.396543   
    161. A(N  35,C  50,C  52)          122.6850         0.445135   
    162. A(N  35,C  50,H  51)          118.7117         0.394174   
    163. A(H  53,C  52,C  54)          120.0020         0.391558   
    164. A(C  50,C  52,C  54)          120.1838         0.441789   
    165. A(C  50,C  52,H  53)          119.8142         0.396798   
    166. A(C  55,C  54,C  59)          121.8561         0.415593   
    167. A(C  52,C  54,C  59)          121.7109         0.407499   
    168. A(C  52,C  54,C  55)          116.3951         0.444595   
    169. A(H  56,C  55,C  57)          119.5552         0.393353   
    170. A(C  54,C  55,C  57)          120.9613         0.447267   
    171. A(C  54,C  55,H  56)          119.4835         0.398759   
    172. A(C  55,C  57,H  58)          118.7584         0.393731   
    173. A(N  35,C  57,H  58)          118.8783         0.397012   
    174. A(N  35,C  57,C  55)          122.3634         0.444804   
    175. A(H  61,C  59,H  62)          109.5178         0.339554   
    176. A(H  60,C  59,H  62)          109.5383         0.339714   
    177. A(C  54,C  59,H  62)          109.4943         0.360030   
    178. A(H  60,C  59,H  61)          109.3226         0.339152   
    179. A(C  54,C  59,H  61)          109.4858         0.359423   
    180. A(C  54,C  59,H  60)          109.4684         0.359595   
    181. D(C   5,N   2,Mn  0,N   3)   -141.2238         0.002051   
    182. D(C   5,N   2,Mn  0,N   4)    -51.4256         0.002051   
    183. D(C   5,N   2,Mn  0,N  34)     38.7760         0.002051   
    184. D(C   5,N   2,Mn  0,N  35)    128.5733         0.002051   
    185. D(C  13,N   3,Mn  0,N   4)     79.9195         0.001667   
    186. D(C  13,N   3,Mn  0,N  33)     -9.6063         0.001667   
    187. D(C   6,N   3,Mn  0,N   4)    -99.9186         0.001667   
    188. D(C  13,N   3,Mn  0,N   2)    170.3954         0.001667   
    189. D(C   6,N   3,Mn  0,N   2)     -9.4427         0.001667   
    190. D(C  13,N   3,Mn  0,N  35)   -100.0790         0.001667   
    191. D(C   6,N   3,Mn  0,N  35)     80.0829         0.001667   
    192. D(C   6,N   3,Mn  0,N  33)    170.5556         0.001667   
    193. D(C  19,N   4,Mn  0,N   2)    -31.9150         0.001726   
    194. D(C  19,N   4,Mn  0,N  33)    148.0862         0.001726   
    195. D(C  19,N   4,Mn  0,N   3)     56.6290         0.001726   
    196. D(C  26,N   4,Mn  0,N   3)   -125.6341         0.001726   
    197. D(C  26,N   4,Mn  0,N  33)    -34.1769         0.001726   
    198. D(C  26,N   4,Mn  0,N  34)     54.3636         0.001726   
    199. D(C  26,N   4,Mn  0,N   2)    145.8219         0.001726   
    200. D(C  19,N   4,Mn  0,N  34)   -123.3734         0.001726   
    201. D(C   8,C   6,N   3,C  13)     -0.4019         0.043655   
    202. D(H   7,C   6,N   3,C  13)    179.4847         0.043655   
    203. D(C   8,C   6,N   3,Mn  0)    179.4459         0.043655   
    204. D(H   7,C   6,N   3,Mn  0)     -0.6675         0.043655   
    205. D(C  10,C   8,C   6,H   7)    179.9024         0.029412   
    206. D(C  10,C   8,C   6,N   3)     -0.2109         0.029412   
    207. D(H   9,C   8,C   6,N   3)    179.8512         0.029412   
    208. D(H   9,C   8,C   6,H   7)     -0.0355         0.029412   
    209. D(C  15,C  10,C   8,C   6)   -179.5973         0.032385   
    210. D(C  11,C  10,C   8,H   9)    178.5533         0.032385   
    211. D(C  11,C  10,C   8,C   6)     -1.3846         0.032385   
    212. D(C  15,C  10,C   8,H   9)      0.3405         0.032385   
    213. D(C  13,C  11,C  10,C  15)   -178.1704         0.038109   
    214. D(C  13,C  11,C  10,C   8)      3.6055         0.038109   
    215. D(H  12,C  11,C  10,C  15)      1.4536         0.038109   
    216. D(H  12,C  11,C  10,C   8)   -176.7704         0.038109   
    217. D(H  14,C  13,C  11,H  12)     -4.1568         0.033511   
    218. D(N   3,C  13,C  11,H  12)    175.7991         0.033511   
    219. D(N   3,C  13,C  11,C  10)     -4.5765         0.033511   
    220. D(H  14,C  13,N   3,C   6)   -177.2810         0.038738   
    221. D(C  11,C  13,N   3,C   6)      2.7631         0.038738   
    222. D(H  14,C  13,C  11,C  10)    175.4676         0.033511   
    223. D(H  14,C  13,N   3,Mn  0)      2.8673         0.038738   
    224. D(C  11,C  13,N   3,Mn  0)   -177.0886         0.038738   
    225. D(H  18,C  15,C  10,C   8)    -91.0314         0.013526   
    226. D(H  17,C  15,C  10,C  11)   -149.1040         0.013526   
    227. D(H  16,C  15,C  10,C   8)    148.8512         0.013526   
    228. D(H  16,C  15,C  10,C  11)    -29.2603         0.013526   
    229. D(H  17,C  15,C  10,C   8)     29.0075         0.013526   
    230. D(C  21,C  19,N   4,Mn  0)    178.0991         0.037783   
    231. D(H  20,C  19,N   4,C  26)   -179.6995         0.037783   
    232. D(H  20,C  19,N   4,Mn  0)     -1.8674         0.037783   
    233. D(C  21,C  19,N   4,C  26)      0.2670         0.037783   
    234. D(C  23,C  21,C  19,H  20)    178.9116         0.032028   
    235. D(C  23,C  21,C  19,N   4)     -1.0549         0.032028   
    236. D(H  22,C  21,C  19,H  20)     -0.9977         0.032028   
    237. D(H  22,C  21,C  19,N   4)    179.0358         0.032028   
    238. D(C  28,C  23,C  21,H  22)      2.3174         0.027226   
    239. D(C  28,C  23,C  21,C  19)   -177.5917         0.027226   
    240. D(C  24,C  23,C  21,H  22)   -179.8825         0.027226   
    241. D(C  24,C  23,C  21,C  19)      0.2085         0.027226   
    242. D(H  25,C  24,C  23,C  28)     -0.9669         0.034542   
    243. D(H  25,C  24,C  23,C  21)   -178.7637         0.034542   
    244. D(C  26,C  24,C  23,C  28)    179.1408         0.034542   
    245. D(C  26,C  24,C  23,C  21)      1.3440         0.034542   
    246. D(H  27,C  26,C  24,H  25)     -2.0638         0.029216   
    247. D(H  27,C  26,C  24,C  23)    177.8284         0.029216   
    248. D(N   4,C  26,C  24,H  25)    177.8850         0.029216   
    249. D(N   4,C  26,C  24,C  23)     -2.2228         0.029216   
    250. D(H  27,C  26,N   4,C  19)   -178.6988         0.041102   
    251. D(H  27,C  26,N   4,Mn  0)      3.4886         0.041102   
    252. D(C  24,C  26,N   4,C  19)      1.3525         0.041102   
    253. D(C  24,C  26,N   4,Mn  0)   -176.4601         0.041102   
    254. D(H  31,C  28,C  23,C  21)   -173.1413         0.013683   
    255. D(H  30,C  28,C  23,C  24)    129.2583         0.013683   
    256. D(H  30,C  28,C  23,C  21)    -53.0615         0.013683   
    257. D(H  29,C  28,C  23,C  24)   -110.9101         0.013683   
    258. D(H  29,C  28,C  23,C  21)     66.7701         0.013683   
    259. D(C  36,N  33,N   2,C   5)   -180.0000         0.001500   
    260. D(C  36,N  33,Mn  0,N  35)     51.4318         0.002051   
    261. D(C  36,N  33,Mn  0,N  34)    141.2292         0.002051   
    262. D(C  36,N  33,Mn  0,N   4)   -128.5693         0.002051   
    263. D(C  36,N  33,Mn  0,N   3)    -38.7711         0.002051   
    264. D(C  44,N  34,N   3,C   6)      0.1618         0.001500   
    265. D(C  37,N  34,N   3,C  13)     -0.1618         0.001500   
    266. D(C  37,N  34,N   3,C   6)   -180.0000         0.001500   
    267. D(C  44,N  34,Mn  0,N  35)    -79.9211         0.001667   
    268. D(C  44,N  34,Mn  0,N  33)   -170.3938         0.001667   
    269. D(C  44,N  34,Mn  0,N   4)    100.0804         0.001667   
    270. D(C  44,N  34,Mn  0,N   2)      9.6045         0.001667   
    271. D(C  37,N  34,Mn  0,N  35)     99.9172         0.001667   
    272. D(C  37,N  34,Mn  0,N  33)      9.4445         0.001667   
    273. D(C  37,N  34,Mn  0,N   4)    -80.0813         0.001667   
    274. D(C  44,N  34,N   3,C  13)    180.0000         0.001500   
    275. D(C  37,N  34,Mn  0,N   2)   -170.5572         0.001667   
    276. D(C  57,N  35,N   4,C  19)      2.2618         0.001500   
    277. D(C  50,N  35,N   4,C  26)     -2.2631         0.001500   
    278. D(C  50,N  35,N   4,C  19)   -180.0000         0.001500   
    279. D(C  57,N  35,Mn  0,N  34)    125.6351         0.001726   
    280. D(C  57,N  35,Mn  0,N  33)   -145.8244         0.001726   
    281. D(C  57,N  35,Mn  0,N   3)    -54.3672         0.001726   
    282. D(C  57,N  35,Mn  0,N   2)     34.1768         0.001726   
    283. D(C  50,N  35,Mn  0,N  34)    -56.6267         0.001726   
    284. D(C  50,N  35,Mn  0,N  33)     31.9137         0.001726   
    285. D(C  50,N  35,Mn  0,N   3)    123.3709         0.001726   
    286. D(C  57,N  35,N   4,C  26)    179.9987         0.001500   
    287. D(C  50,N  35,Mn  0,N   2)   -148.0851         0.001726   
    288. D(C  39,C  37,N  34,C  44)      0.4019         0.043655   
    289. D(C  39,C  37,N  34,Mn  0)   -179.4461         0.043655   
    290. D(H  38,C  37,N  34,C  44)   -179.4894         0.043655   
    291. D(H  38,C  37,N  34,Mn  0)      0.6626         0.043655   
    292. D(C  41,C  39,C  37,H  38)   -179.8944         0.029412   
    293. D(C  41,C  39,C  37,N  34)      0.2142         0.029412   
    294. D(H  40,C  39,C  37,H  38)      0.0354         0.029412   
    295. D(H  40,C  39,C  37,N  34)   -179.8559         0.029412   
    296. D(C  46,C  41,C  39,H  40)     -0.3323         0.032381   
    297. D(C  46,C  41,C  39,C  37)    179.5975         0.032381   
    298. D(C  42,C  41,C  39,H  40)   -178.5513         0.032381   
    299. D(C  42,C  41,C  39,C  37)      1.3785         0.032381   
    300. D(C  44,C  42,C  41,C  46)    178.1704         0.038131   
    301. D(C  44,C  42,C  41,C  39)     -3.5994         0.038131   
    302. D(H  43,C  42,C  41,C  46)     -1.4570         0.038131   
    303. D(H  43,C  42,C  41,C  39)    176.7732         0.038131   
    304. D(H  45,C  44,N  34,C  37)    177.2860         0.038738   
    305. D(H  45,C  44,N  34,Mn  0)     -2.8622         0.038738   
    306. D(C  42,C  44,N  34,C  37)     -2.7631         0.038738   
    307. D(C  42,C  44,N  34,Mn  0)    177.0888         0.038738   
    308. D(H  45,C  44,C  42,H  43)      4.1519         0.033511   
    309. D(H  45,C  44,C  42,C  41)   -175.4758         0.033511   
    310. D(N  34,C  44,C  42,H  43)   -175.7991         0.033511   
    311. D(N  34,C  44,C  42,C  41)      4.5732         0.033511   
    312. D(H  49,C  46,C  41,C  39)     91.0280         0.013526   
    313. D(H  48,C  46,C  41,C  42)    149.1126         0.013526   
    314. D(H  48,C  46,C  41,C  39)    -29.0055         0.013526   
    315. D(H  47,C  46,C  41,C  42)     29.2615         0.013526   
    316. D(H  47,C  46,C  41,C  39)   -148.8566         0.013526   
    317. D(C  52,C  50,N  35,C  57)     -0.2658         0.037783   
    318. D(C  52,C  50,N  35,Mn  0)   -178.0990         0.037783   
    319. D(H  51,C  50,N  35,C  57)    179.7007         0.037783   
    320. D(H  51,C  50,N  35,Mn  0)      1.8675         0.037783   
    321. D(C  54,C  52,C  50,H  51)   -178.9116         0.032028   
    322. D(C  54,C  52,C  50,N  35)      1.0549         0.032028   
    323. D(H  53,C  52,C  50,H  51)      0.9994         0.032028   
    324. D(H  53,C  52,C  50,N  35)   -179.0341         0.032028   
    325. D(C  59,C  54,C  52,H  53)     -2.3191         0.027226   
    326. D(C  59,C  54,C  52,C  50)    177.5917         0.027226   
    327. D(C  55,C  54,C  52,H  53)    179.8796         0.027226   
    328. D(C  55,C  54,C  52,C  50)     -0.2096         0.027226   
    329. D(C  57,C  55,C  54,C  59)   -179.1408         0.034546   
    330. D(C  57,C  55,C  54,C  52)     -1.3430         0.034546   
    331. D(H  56,C  55,C  54,C  59)      0.9643         0.034546   
    332. D(H  56,C  55,C  54,C  52)    178.7622         0.034546   
    333. D(H  58,C  57,C  55,H  56)      2.0653         0.029216   
    334. D(H  58,C  57,C  55,C  54)   -177.8295         0.029216   
    335. D(N  35,C  57,C  55,H  56)   -177.8822         0.029216   
    336. D(N  35,C  57,C  55,C  54)      2.2230         0.029216   
    337. D(H  58,C  57,N  35,C  50)    178.6988         0.041133   
    338. D(H  58,C  57,N  35,Mn  0)     -3.4874         0.041133   
    339. D(C  55,C  57,N  35,C  50)     -1.3537         0.041133   
    340. D(C  55,C  57,N  35,Mn  0)    176.4601         0.041133   
    341. D(H  62,C  59,C  54,C  52)    173.1394         0.013683   
    342. D(H  61,C  59,C  54,C  55)   -129.2596         0.013683   
    343. D(H  61,C  59,C  54,C  52)     53.0593         0.013683   
    344. D(H  60,C  59,C  54,C  55)    110.9152         0.013683   
    345. D(H  60,C  59,C  54,C  52)    -66.7660         0.013683   
    -----------------------------------------------------------------

Number of atoms                         .... 63
Number of degrees of freedom            .... 345


         *************************************************************
         *                GEOMETRY OPTIMIZATION CYCLE   1            *
         *************************************************************
---------------------------------
CARTESIAN COORDINATES (ANGSTROEM)
---------------------------------
  Mn    -6.934200   12.010500   11.222000
  S     -4.085800   12.778900   15.011700
  N     -5.611200   12.812800   12.730200
  N     -5.840300   13.338800    9.640800
  N     -5.455000   10.307400   10.803400
  C     -4.945500   12.817600   13.648200
  C     -4.963500   14.275600    9.950500
  H     -4.776300   14.422200   10.850600
  C     -4.310300   15.051500    9.015800
  H     -3.704300   15.697700    9.295200
  C     -4.548900   14.873800    7.681500
  C     -5.418400   13.896100    7.362800
  H     -5.583500   13.701500    6.468400
  C     -6.066100   13.192300    8.333500
  H     -6.705400   12.570200    8.068600
  C     -3.859600   15.683300    6.633300
  H     -3.754200   15.154800    5.838800
  H     -2.994200   15.952300    6.954300
  H     -4.381100   16.461600    6.432500
  C     -4.137000   10.494800   10.935800
  H     -3.827700   11.337900   11.176000
  C     -3.224400    9.495500   10.732700
  H     -2.317400    9.673200   10.822500
  C     -3.651600    8.217600   10.394900
  C     -4.994000    8.039800   10.280500
  H     -5.328300    7.196700   10.072900
  C     -5.867800    9.091900   10.465600
  H     -6.777500    8.943000   10.350100
  C     -2.690500    7.091000   10.217600
  H     -2.285500    6.879600   11.062600
  H     -2.006800    7.348000    9.592600
  H     -3.156500    6.322300    9.884300
  S     -9.782700   11.242000    7.432300
  N     -8.257300   11.208200    9.713800
  N     -8.028200   10.682100   12.803200
  N     -8.413500   13.713600   11.640600
  C     -8.923000   11.203400    8.795800
  C     -8.905000    9.745300   12.493500
  H     -9.092200    9.598800   11.593400
  C     -9.558200    8.969400   13.428200
  H    -10.164200    8.323300   13.148800
  C     -9.319600    9.147200   14.762500
  C     -8.450100   10.124800   15.081200
  H     -8.285000   10.319400   15.975600
  C     -7.802400   10.828600   14.110500
  H     -7.163100   11.450800   14.375400
  C    -10.008900    8.337700   15.810700
  H    -10.114300    8.866100   16.605200
  H    -10.874300    8.068600   15.489700
  H     -9.487400    7.559400   16.011500
  C     -9.731500   13.526200   11.508200
  H    -10.040800   12.683100   11.268000
  C    -10.644100   14.525500   11.711300
  H    -11.551100   14.347700   11.621500
  C    -10.216900   15.803400   12.049100
  C     -8.874500   15.981100   12.163500
  H     -8.540200   16.824300   12.371100
  C     -8.000700   14.929000   11.978400
  H     -7.091000   15.077900   12.093900
  C    -11.178000   16.930000   12.226400
  H    -11.583000   17.141300   11.381400
  H    -11.861700   16.672900   12.851400
  H    -10.712000   17.698600   12.559700

----------------------------
CARTESIAN COORDINATES (A.U.)
----------------------------
  NO LB      ZA    FRAG     MASS         X           Y           Z
   0 Mn   25.0000    0    54.940  -13.103739   22.696556   21.206507
   1 S    16.0000    0    32.060   -7.721043   24.148621   28.368002
   2 N     7.0000    0    14.007  -10.603631   24.212683   24.056592
   3 N     7.0000    0    14.007  -11.036568   25.206679   18.218472
   4 N     7.0000    0    14.007  -10.308456   19.478163   20.415467
   5 C     6.0000    0    12.011   -9.345641   24.221754   25.791360
   6 C     6.0000    0    12.011   -9.379656   26.976974   18.803720
   7 H     1.0000    0     1.008   -9.025899   27.254008   20.504662
   8 C     6.0000    0    12.011   -8.145287   28.443213   17.037393
   9 H     1.0000    0     1.008   -7.000113   29.664354   17.565382
  10 C     6.0000    0    12.011   -8.596175   28.107409   14.515931
  11 C     6.0000    0    12.011  -10.239292   26.259823   13.913676
  12 H     1.0000    0     1.008  -10.551286   25.892083   12.223505
  13 C     6.0000    0    12.011  -11.463268   24.929834   15.748033
  14 H     1.0000    0     1.008  -12.671370   23.754235   15.247444
  15 C     6.0000    0    12.011   -7.293587   29.637142   12.535120
  16 H     1.0000    0     1.008   -7.094410   28.638422   11.033733
  17 H     1.0000    0     1.008   -5.658218   30.145478   13.141722
  18 H     1.0000    0     1.008   -8.279079   31.107916   12.155663
  19 C     6.0000    0    12.011   -7.817797   19.832298   20.665667
  20 H     1.0000    0     1.008   -7.233305   21.425526   21.119579
  21 C     6.0000    0    12.011   -6.093233   17.943895   20.281864
  22 H     1.0000    0     1.008   -4.379251   18.279699   20.451561
  23 C     6.0000    0    12.011   -6.900524   15.529013   19.643514
  24 C     6.0000    0    12.011   -9.437292   15.193020   19.427330
  25 H     1.0000    0     1.008  -10.069028   13.599792   19.035022
  26 C     6.0000    0    12.011  -11.088535   17.181201   19.777118
  27 H     1.0000    0     1.008  -12.807619   16.899821   19.558854
  28 C     6.0000    0    12.011   -5.084308   13.400048   19.308466
  29 H     1.0000    0     1.008   -4.318969   13.000560   20.905284
  30 H     1.0000    0     1.008   -3.792302   13.885708   18.127387
  31 H     1.0000    0     1.008   -5.964921   11.947416   18.678620
  32 S    16.0000    0    32.060  -18.486624   21.244301   14.045012
  33 N     7.0000    0    14.007  -15.604036   21.180428   18.356422
  34 N     7.0000    0    14.007  -15.171099   20.186244   24.194542
  35 N     7.0000    0    14.007  -15.899211   25.914948   21.997546
  36 C     6.0000    0    12.011  -16.862026   21.171358   16.621653
  37 C     6.0000    0    12.011  -16.828011   18.415948   23.609293
  38 H     1.0000    0     1.008  -17.181768   18.139103   21.908351
  39 C     6.0000    0    12.011  -18.062380   16.949710   25.375620
  40 H     1.0000    0     1.008  -19.207554   15.728758   24.847631
  41 C     6.0000    0    12.011  -17.611492   17.285703   27.897082
  42 C     6.0000    0    12.011  -15.968375   19.133099   28.499338
  43 H     1.0000    0     1.008  -15.656381   19.500840   30.189509
  44 C     6.0000    0    12.011  -14.744399   20.463088   26.664981
  45 H     1.0000    0     1.008  -13.536297   21.638876   27.165569
  46 C     6.0000    0    12.011  -18.914080   15.755970   29.877893
  47 H     1.0000    0     1.008  -19.113257   16.754501   31.379280
  48 H     1.0000    0     1.008  -20.549449   15.247444   29.271291
  49 H     1.0000    0     1.008  -17.928588   14.285196   30.257350
  50 C     6.0000    0    12.011  -18.389870   25.560814   21.747346
  51 H     1.0000    0     1.008  -18.974362   23.967586   21.293434
  52 C     6.0000    0    12.011  -20.114434   27.449217   22.131150
  53 H     1.0000    0     1.008  -21.828416   27.113224   21.961452
  54 C     6.0000    0    12.011  -19.307143   29.864098   22.769499
  55 C     6.0000    0    12.011  -16.770375   30.199902   22.985684
  56 H     1.0000    0     1.008  -16.138639   31.793319   23.377991
  57 C     6.0000    0    12.011  -15.119132   28.211721   22.635896
  58 H     1.0000    0     1.008  -13.400048   28.493102   22.854159
  59 C     6.0000    0    12.011  -21.123359   31.993063   23.104548
  60 H     1.0000    0     1.008  -21.888698   32.392363   21.507729
  61 H     1.0000    0     1.008  -22.415364   31.507215   24.285626
  62 H     1.0000    0     1.008  -20.242746   33.445507   23.734393

--------------------------------
INTERNAL COORDINATES (ANGSTROEM)
--------------------------------
 Mn     0   0   0     0.000000000000     0.00000000     0.00000000
 S      1   0   0     4.802670841313     0.00000000     0.00000000
 N      1   2   0     2.160713199386    13.25962302     0.00000000
 N      1   2   3     2.336919241223    99.51728288    34.54688185
 N      1   2   3     2.294299067253    83.12847463   123.19534667
 C      3   1   5     1.133976864843   157.83299537   308.57442224
 C      4   1   2     1.319957033392   123.75122983   343.08139563
 H      7   4   1     0.930975515253   118.17566101   359.33247016
 C      7   4   1     1.379258909705   123.69936951   179.44586954
 H      9   7   4     0.928910544670   119.76617380   179.85115734
 C      9   7   4     1.367063912186   120.37516003   359.78906789
 C     11   9   7     1.346661512779   115.97964928   358.61542212
 H     12  11   9     0.930095978918   119.60977971   183.22959069
 C      4   1   2     1.334721386657   121.40870007   162.91950303
 H     14   4   1     0.930529370842   117.93277167     2.86730386
 C     11   9   7     1.493033147656   122.28826598   180.40267419
 H     16  11   9     0.960026905873   109.46453766   148.85115966
 H     16  11   9     0.961415186067   109.44279843    29.00745592
 H     16  11   9     0.958140793412   109.64961996   268.96861442
 C      5   1   2     1.337823800057   120.87291892   317.01894858
 H     20   5   1     0.929612897931   118.71170808   358.13262754
 C     20   5   1     1.368462224543   122.68499308   178.09911994
 H     22  20   5     0.928595891656   119.82002411   179.03582160
 C     22  20   5     1.389113778637   120.18376049   358.94507273
 C     24  22  20     1.358947372049   116.39918449     0.20845434
 H     25  24  22     0.930414885951   119.48979804   181.23625336
 C      5   1   2     1.327385750263   121.71383371   134.75590653
 H     27   5   1     0.929013213038   118.87686520     3.48855842
 C     24  22  20     1.491434229190   121.71088298   182.40828809
 H     29  24  22     0.960593545679   109.47275655    66.77010684
 H     29  24  22     0.961311442770   109.49111991   306.93849710
 H     29  24  22     0.958720282460   109.49741046   186.85868011
 S     15  14   4     3.411563896514   158.92154985    79.28434785
 N      1   2   6     2.160774430615   166.74034343   173.70863091
 N      1   2   6     2.337022892485    80.48501521   208.24583453
 N      1   2   6     2.294363541377    96.87282314   296.89342842
 C     34   1   3     1.133976864843   157.83313589    86.15947619
 C     35   1   2     1.319957033392   123.75358319   196.91862221
 H     38  35   1     0.930959773567   118.17122492     0.66262447
 C     38  35   1     1.379258909705   123.69936951   180.55393792
 H     40  38  35     0.928840982085   119.76463039   180.14405747
 C     40  38  35     1.367076914442   120.37210785     0.21420083
 C     42  40  38     1.346588912772   115.98365852     1.37848629
 H     43  42  40     0.930095978918   119.61051129   176.77321199
 C     35   1   2     1.334721386657   121.40634717    17.08030604
 H     45  35   1     0.930596228232   117.93135407   357.13781930
 C     42  40  38     1.493033147656   122.28523369   179.59746839
 H     47  42  40     0.959971858963   109.46913106   211.14343139
 H     47  42  40     0.961443170447   109.44563624   330.99445137
 H     47  42  40     0.958140793412   109.64961996    91.02802445
 C     36   1   2     1.337823800057   120.87482275   222.98113680
 H     51  36   1     0.929612897931   118.71170808     1.86753486
 C     51  36   1     1.368462224543   122.68499308   181.90104246
 H     53  51  36     0.928615033262   119.81415415   180.96589520
 C     53  51  36     1.389113778637   120.18376049     1.05492727
 C     55  53  51     1.358934292010   116.39512807   359.79041939
 H     56  55  53     0.930505502402   119.48349080   178.76218123
 C     36   1   2     1.327294179901   121.71060169    45.24298466
 H     58  36   1     0.929013213038   118.87825510   356.51263097
 C     55  53  51     1.491434229190   121.71088298   177.59171191
 H     60  55  53     0.960571543405   109.46844163   293.23403334
 H     60  55  53     0.961338181911   109.48578018    53.05926014
 H     60  55  53     0.958640104523   109.49431782   173.13942444

---------------------------
INTERNAL COORDINATES (A.U.)
---------------------------
 Mn     0   0   0     0.000000000000     0.00000000     0.00000000
 S      1   0   0     9.075732601451     0.00000000     0.00000000
 N      1   2   0     4.083156200788    13.25962302     0.00000000
 N      1   2   3     4.416137363003    99.51728288    34.54688185
 N      1   2   3     4.335596906420    83.12847463   123.19534667
 C      3   1   5     2.142905716757   157.83299537   308.57442224
 C      4   1   2     2.494357301653   123.75122983   343.08139563
 H      7   4   1     1.759288761214   118.17566101   359.33247016
 C      7   4   1     2.606421607113   123.69936951   179.44586954
 H      9   7   4     1.755386532339   119.76617380   179.85115734
 C      9   7   4     2.583376401598   120.37516003   359.78906789
 C     11   9   7     2.544821454244   115.97964928   358.61542212
 H     12  11   9     1.757626678417   119.60977971   183.22959069
 C      4   1   2     2.522257885870   121.40870007   162.91950303
 H     14   4   1     1.758445670462   117.93277167     2.86730386
 C     11   9   7     2.821423757937   122.28826598   180.40267419
 H     16  11   9     1.814187933296   109.46453766   148.85115966
 H     16  11   9     1.816811402659   109.44279843    29.00745592
 H     16  11   9     1.810623697287   109.64961996   268.96861442
 C      5   1   2     2.528120597550   120.87291892   317.01894858
 H     20   5   1     1.756713787651   118.71170808   358.13262754
 C     20   5   1     2.586018829002   122.68499308   178.09911994
 H     22  20   5     1.754791924314   119.82002411   179.03582160
 C     22  20   5     2.625044610481   120.18376049   358.94507273
 C     24  22  20     2.568038363585   116.39918449     0.20845434
 H     25  24  22     1.758229325372   119.48979804   181.23625336
 C      5   1   2     2.508395542066   121.71383371   134.75590653
 H     27   5   1     1.755580547437   118.87686520     3.48855842
 C     24  22  20     2.818402239925   121.71088298   182.40828809
 H     29  24  22     1.815258727346   109.47275655    66.77010684
 H     29  24  22     1.816615356239   109.49111991   306.93849710
 H     29  24  22     1.811718772885   109.49741046   186.85868011
 S     15  14   4     6.446921452785   158.92154985    79.28434785
 N      1   2   6     4.083271911042   166.74034343   173.70863091
 N      1   2   6     4.416333235502    80.48501521   208.24583453
 N      1   2   6     4.335718744856    96.87282314   296.89342842
 C     34   1   3     2.142905716757   157.83313589    86.15947619
 C     35   1   2     2.494357301653   123.75358319   196.91862221
 H     38  35   1     1.759259013739   118.17122492     0.66262447
 C     38  35   1     2.606421607113   123.69936951   180.55393792
 H     40  38  35     1.755255078102   119.76463039   180.14405747
 C     40  38  35     2.583400972301   120.37210785     0.21420083
 C     42  40  38     2.544684260114   115.98365852     1.37848629
 H     43  42  40     1.757626678417   119.61051129   176.77321199
 C     35   1   2     2.522257885870   121.40634717    17.08030604
 H     45  35   1     1.758572012619   117.93135407   357.13781930
 C     42  40  38     2.821423757937   122.28523369   179.59746839
 H     47  42  40     1.814083909710   109.46913106   211.14343139
 H     47  42  40     1.816864285475   109.44563624   330.99445137
 H     47  42  40     1.810623697287   109.64961996    91.02802445
 C     36   1   2     2.528120597550   120.87482275   222.98113680
 H     51  36   1     1.756713787651   118.71170808     1.86753486
 C     51  36   1     2.586018829002   122.68499308   181.90104246
 H     53  51  36     1.754828096707   119.81415415   180.96589520
 C     53  51  36     2.625044610481   120.18376049     1.05492727
 C     55  53  51     2.568013645893   116.39512807   359.79041939
 H     56  55  53     1.758400565646   119.48349080   178.76218123
 C     36   1   2     2.508222499161   121.71060169    45.24298466
 H     58  36   1     1.755580547437   118.87825510   356.51263097
 C     55  53  51     2.818402239925   121.71088298   177.59171191
 H     60  55  53     1.815217149074   109.46844163   293.23403334
 H     60  55  53     1.816665885894   109.48578018    53.05926014
 H     60  55  53     1.811567258542   109.49431782   173.13942444

---------------------
BASIS SET INFORMATION
---------------------
There are 5 groups of distinct atoms

 Group   1 Type Mn  : 17s11p7d1f contracted to 6s4p4d1f pattern {842111/6311/4111/1}
 Group   2 Type S   : 14s9p3d1f contracted to 5s5p2d1f pattern {73211/51111/21/1}
 Group   3 Type N   : 11s6p2d1f contracted to 5s3p2d1f pattern {62111/411/11/1}
 Group   4 Type C   : 11s6p2d1f contracted to 5s3p2d1f pattern {62111/411/11/1}
 Group   5 Type H   : 5s1p contracted to 3s1p pattern {311/1}

Atom   0Mn   basis set group =>   1
Atom   1S    basis set group =>   2
Atom   2N    basis set group =>   3
Atom   3N    basis set group =>   3
Atom   4N    basis set group =>   3
Atom   5C    basis set group =>   4
Atom   6C    basis set group =>   4
Atom   7H    basis set group =>   5
Atom   8C    basis set group =>   4
Atom   9H    basis set group =>   5
Atom  10C    basis set group =>   4
Atom  11C    basis set group =>   4
Atom  12H    basis set group =>   5
Atom  13C    basis set group =>   4
Atom  14H    basis set group =>   5
Atom  15C    basis set group =>   4
Atom  16H    basis set group =>   5
Atom  17H    basis set group =>   5
Atom  18H    basis set group =>   5
Atom  19C    basis set group =>   4
Atom  20H    basis set group =>   5
Atom  21C    basis set group =>   4
Atom  22H    basis set group =>   5
Atom  23C    basis set group =>   4
Atom  24C    basis set group =>   4
Atom  25H    basis set group =>   5
Atom  26C    basis set group =>   4
Atom  27H    basis set group =>   5
Atom  28C    basis set group =>   4
Atom  29H    basis set group =>   5
Atom  30H    basis set group =>   5
Atom  31H    basis set group =>   5
Atom  32S    basis set group =>   2
Atom  33N    basis set group =>   3
Atom  34N    basis set group =>   3
Atom  35N    basis set group =>   3
Atom  36C    basis set group =>   4
Atom  37C    basis set group =>   4
Atom  38H    basis set group =>   5
Atom  39C    basis set group =>   4
Atom  40H    basis set group =>   5
Atom  41C    basis set group =>   4
Atom  42C    basis set group =>   4
Atom  43H    basis set group =>   5
Atom  44C    basis set group =>   4
Atom  45H    basis set group =>   5
Atom  46C    basis set group =>   4
Atom  47H    basis set group =>   5
Atom  48H    basis set group =>   5
Atom  49H    basis set group =>   5
Atom  50C    basis set group =>   4
Atom  51H    basis set group =>   5
Atom  52C    basis set group =>   4
Atom  53H    basis set group =>   5
Atom  54C    basis set group =>   4
Atom  55C    basis set group =>   4
Atom  56H    basis set group =>   5
Atom  57C    basis set group =>   4
Atom  58H    basis set group =>   5
Atom  59C    basis set group =>   4
Atom  60H    basis set group =>   5
Atom  61H    basis set group =>   5
Atom  62H    basis set group =>   5
---------------------------------
AUXILIARY/J BASIS SET INFORMATION
---------------------------------
There are 5 groups of distinct atoms

 Group   1 Type Mn  : 19s5p5d3f3g contracted to 8s5p5d2f3g pattern {121111111/11111/11111/21/111}
 Group   2 Type S   : 14s5p5d2f1g contracted to 8s4p3d1f1g pattern {71111111/2111/311/2/1}
 Group   3 Type N   : 12s5p4d2f1g contracted to 6s4p3d1f1g pattern {711111/2111/211/2/1}
 Group   4 Type C   : 12s5p4d2f1g contracted to 6s4p3d1f1g pattern {711111/2111/211/2/1}
 Group   5 Type H   : 5s2p1d contracted to 3s1p1d pattern {311/2/1}

Atom   0Mn   basis set group =>   1
Atom   1S    basis set group =>   2
Atom   2N    basis set group =>   3
Atom   3N    basis set group =>   3
Atom   4N    basis set group =>   3
Atom   5C    basis set group =>   4
Atom   6C    basis set group =>   4
Atom   7H    basis set group =>   5
Atom   8C    basis set group =>   4
Atom   9H    basis set group =>   5
Atom  10C    basis set group =>   4
Atom  11C    basis set group =>   4
Atom  12H    basis set group =>   5
Atom  13C    basis set group =>   4
Atom  14H    basis set group =>   5
Atom  15C    basis set group =>   4
Atom  16H    basis set group =>   5
Atom  17H    basis set group =>   5
Atom  18H    basis set group =>   5
Atom  19C    basis set group =>   4
Atom  20H    basis set group =>   5
Atom  21C    basis set group =>   4
Atom  22H    basis set group =>   5
Atom  23C    basis set group =>   4
Atom  24C    basis set group =>   4
Atom  25H    basis set group =>   5
Atom  26C    basis set group =>   4
Atom  27H    basis set group =>   5
Atom  28C    basis set group =>   4
Atom  29H    basis set group =>   5
Atom  30H    basis set group =>   5
Atom  31H    basis set group =>   5
Atom  32S    basis set group =>   2
Atom  33N    basis set group =>   3
Atom  34N    basis set group =>   3
Atom  35N    basis set group =>   3
Atom  36C    basis set group =>   4
Atom  37C    basis set group =>   4
Atom  38H    basis set group =>   5
Atom  39C    basis set group =>   4
Atom  40H    basis set group =>   5
Atom  41C    basis set group =>   4
Atom  42C    basis set group =>   4
Atom  43H    basis set group =>   5
Atom  44C    basis set group =>   4
Atom  45H    basis set group =>   5
Atom  46C    basis set group =>   4
Atom  47H    basis set group =>   5
Atom  48H    basis set group =>   5
Atom  49H    basis set group =>   5
Atom  50C    basis set group =>   4
Atom  51H    basis set group =>   5
Atom  52C    basis set group =>   4
Atom  53H    basis set group =>   5
Atom  54C    basis set group =>   4
Atom  55C    basis set group =>   4
Atom  56H    basis set group =>   5
Atom  57C    basis set group =>   4
Atom  58H    basis set group =>   5
Atom  59C    basis set group =>   4
Atom  60H    basis set group =>   5
Atom  61H    basis set group =>   5
Atom  62H    basis set group =>   5


           ************************************************************
           *        Program running with 16 parallel MPI-processes    *
           *              working on a common directory               *
           ************************************************************
------------------------------------------------------------------------------
                             ORCA STARTUP CALCULATIONS
                           -- RI-GTO INTEGRALS CHOSEN --
------------------------------------------------------------------------------
------------------------------------------------------------------------------
                   ___                                                        
                  /   \      - P O W E R E D   B Y -                         
                 /     \                                                     
                 |  |  |   _    _      __       _____    __    __             
                 |  |  |  | |  | |    /  \     |  _  \  |  |  /  |          
                  \  \/   | |  | |   /    \    | | | |  |  | /  /          
                 / \  \   | |__| |  /  /\  \   | |_| |  |  |/  /          
                |  |  |   |  __  | /  /__\  \  |    /   |      \           
                |  |  |   | |  | | |   __   |  |    \   |  |\   \          
                \     /   | |  | | |  |  |  |  | |\  \  |  | \   \       
                 \___/    |_|  |_| |__|  |__|  |_| \__\ |__|  \__/        
                                                                              
                      - O R C A' S   B I G   F R I E N D -                    
                                      &                                       
                       - I N T E G R A L  F E E D E R -                       
                                                                              
 v1 FN, 2020, v2 2021, v3 2022-2024                                           
------------------------------------------------------------------------------


----------------------
SHARK INTEGRAL PACKAGE
----------------------

Number of atoms                             ...     63
Number of basis functions                   ...   1279
Number of shells                            ...    505
Maximum angular momentum                    ...      3
Integral batch strategy                     ... SHARK/LIBINT Hybrid
RI-J (if used) integral strategy            ... SPLIT-RIJ (Revised 2003 algorithm where possible)
Printlevel                                  ...      1
Contraction scheme used                     ... SEGMENTED contraction
Prescreening option                         ... SCHWARTZ
   Thresh                                   ... 2.500e-11
   Tcut                                     ... 2.500e-12
   Tpresel                                  ... 2.500e-12 
Coulomb Range Separation                    ... NOT USED
Exchange Range Separation                   ... NOT USED
Multipole approximations                    ... NOT USED
Finite Nucleus Model                        ... NOT USED
CABS basis                                  ... NOT available
Auxiliary Coulomb fitting basis             ... AVAILABLE
   # of basis functions in Aux-J            ...   2067
   # of shells in Aux-J                     ...    677
   Maximum angular momentum in Aux-J        ...      4
Auxiliary J/K fitting basis                 ... NOT available
Auxiliary Correlation fitting basis         ... NOT available
Auxiliary 'external' fitting basis          ... NOT available

Checking pre-screening integrals            ... done (  0.0 sec) Dimension = 505
Check shell pair data                       ... done (  0.0 sec)
Shell pair information
Shell pair cut-off parameter TPreSel        ...   2.5e-12
Total number of shell pairs                 ...    127765
Shell pairs after pre-screening             ...     73490
Total number of primitive shell pairs       ...    404570
Primitive shell pairs kept                  ...    143249
          la=0 lb=0:  18846 shell pairs
          la=1 lb=0:  21722 shell pairs
          la=1 lb=1:   6299 shell pairs
          la=2 lb=0:  10352 shell pairs
          la=2 lb=1:   6068 shell pairs
          la=2 lb=2:   1518 shell pairs
          la=3 lb=0:   4470 shell pairs
          la=3 lb=1:   2698 shell pairs
          la=3 lb=2:   1258 shell pairs
          la=3 lb=3:    259 shell pairs

Calculating one electron integrals          ... done (  0.1 sec)
done (  0.2 sec)
Calculating Nuclear repulsion               ... done (  0.0 sec) ENN=   4578.923235464067 Eh

Diagonalization of the overlap matrix:
Smallest eigenvalue                        ... 1.754e-05
Time for diagonalization                   ...    0.141 sec
Threshold for overlap eigenvalues          ... 1.000e-07
Number of eigenvalues below threshold      ... 0
Time for construction of square roots      ...    0.168 sec
Total time needed                          ...    0.330 sec

-------------------
DFT GRID GENERATION
-------------------

General Integration Accuracy     IntAcc      ... 4.959
Radial Grid Type                 RadialGrid  ... OptM3 with GC (2021)
Angular Grid (max. ang.)         AngularGrid ... 6 (Lebedev-590)
Angular grid pruning method      GridPruning ... 4 (adaptive)
Weight generation scheme         WeightScheme... mBecke (2022)
Basis function cutoff            BFCut       ... 1.0000e-11
Integration weight cutoff        WCut        ... 1.0000e-14
Partially contracted basis set               ... off
Rotationally invariant grid construction     ... off
Angular grids for H and He will be reduced by one unit
Core-polarized basis detected: some atoms will have their core
                               angular grid increased.

Total number of grid points                  ...   748204
Total number of batches                      ...    11721
Average number of points per batch           ...       63
Average number of grid points per atom       ...    11876

--------------------
COSX GRID GENERATION
--------------------

GRIDX 1
-------
General Integration Accuracy     IntAcc      ... 4.020
Radial Grid Type                 RadialGrid  ... OptM3 with GC (2021)
Angular Grid (max. ang.)         AngularGrid ... 2 (Lebedev-110)
Angular grid pruning method      GridPruning ... 4 (adaptive)
Weight generation scheme         WeightScheme... mBecke (2022)
Basis function cutoff            BFCut       ... 1.0000e-11
Integration weight cutoff        WCut        ... 1.0000e-14
Partially contracted basis set               ... on
Rotationally invariant grid construction     ... off
Angular grids for H and He will be reduced by one unit
Core-polarized basis detected: some atoms will have their core
                               angular grid increased.

Total number of grid points                  ...    84854
Total number of batches                      ...      696
Average number of points per batch           ...      121
Average number of grid points per atom       ...     1347
UseSFitting                                  ... on

GRIDX 2
-------
General Integration Accuracy     IntAcc      ... 4.338
Radial Grid Type                 RadialGrid  ... OptM3 with GC (2021)
Angular Grid (max. ang.)         AngularGrid ... 3 (Lebedev-194)
Angular grid pruning method      GridPruning ... 4 (adaptive)
Weight generation scheme         WeightScheme... mBecke (2022)
Basis function cutoff            BFCut       ... 1.0000e-11
Integration weight cutoff        WCut        ... 1.0000e-14
Partially contracted basis set               ... on
Rotationally invariant grid construction     ... off
Angular grids for H and He will be reduced by one unit
Core-polarized basis detected: some atoms will have their core
                               angular grid increased.

Total number of grid points                  ...   180294
Total number of batches                      ...     1441
Average number of points per batch           ...      125
Average number of grid points per atom       ...     2862
UseSFitting                                  ... on

GRIDX 3
-------
General Integration Accuracy     IntAcc      ... 4.871
Radial Grid Type                 RadialGrid  ... OptM3 with GC (2021)
Angular Grid (max. ang.)         AngularGrid ... 4 (Lebedev-302)
Angular grid pruning method      GridPruning ... 4 (adaptive)
Weight generation scheme         WeightScheme... mBecke (2022)
Basis function cutoff            BFCut       ... 1.0000e-11
Integration weight cutoff        WCut        ... 1.0000e-14
Partially contracted basis set               ... on
Rotationally invariant grid construction     ... off
Angular grids for H and He will be reduced by one unit
Core-polarized basis detected: some atoms will have their core
                               angular grid increased.

Total number of grid points                  ...   337210
Total number of batches                      ...     2661
Average number of points per batch           ...      126
Average number of grid points per atom       ...     5353
UseSFitting                                  ... on
Initializing property integral containers    ... done (  0.0 sec)

SHARK setup successfully completed in  10.6 seconds

Maximum memory used throughout the entire STARTUP-calculation: 242.0 MB


           ************************************************************
           *        Program running with 16 parallel MPI-processes    *
           *              working on a common directory               *
           ************************************************************
-------------------------------------------------------------------------------
                                 ORCA GUESS
                   Start orbitals & Density for SCF / CASSCF
-------------------------------------------------------------------------------

------------
SCF SETTINGS
------------
Hamiltonian:
 Density Functional     Method          .... DFT(GTOs)
 Exchange Functional    Exchange        .... PBE
   PBE kappa parameter   XKappa         ....  0.804000
   PBE mue parameter    XMuePBE         ....  0.219520
 Correlation Functional Correlation     .... PBE
   PBE beta parameter  CBetaPBE         ....  0.066725
 LDA part of GGA corr.  LDAOpt          .... PW91-LDA
 Gradients option       PostSCFGGA      .... off
 Hybrid DFT is turned on
   Fraction HF Exchange ScalHFX         ....  0.250000
   Scaling of DF-GGA-X  ScalDFX         ....  0.750000
   Scaling of DF-GGA-C  ScalDFC         ....  1.000000
   Scaling of DF-LDA-C  ScalLDAC        ....  1.000000
   Perturbative correction              ....  0.000000
   NL short-range parameter             ....  6.900000
 RI-approximation to the Coulomb term is turned on
   Number of AuxJ basis functions       .... 2067
   RIJ-COSX (HFX calculated with COS-X)).... on


General Settings:
 Integral files         IntName         .... EQEGEN-S6
 Hartree-Fock type      HFTyp           .... UHF
 Total Charge           Charge          ....    0
 Multiplicity           Mult            ....    4
 Number of Electrons    NEL             ....  283
 Basis Dimension        Dim             .... 1279
 Nuclear Repulsion      ENuc            ....   4578.9232354641 Eh

Convergence Acceleration:
 AO-DIIS                CNVDIIS         .... on
   Start iteration      DIISMaxIt       ....    12
   Startup error        DIISStart       ....  0.200000
   # of expansion vecs  DIISMaxEq       ....     5
   Bias factor          DIISBfac        ....   1.050
   Max. coefficient     DIISMaxC        ....  10.000
 MO-DIIS                CNVKDIIS        .... off
 Trust-Rad. Augm. Hess. CNVTRAH         .... auto
   Auto Start mean grad. ratio tolernc. ....  1.125000
   Auto Start start iteration           ....    50
   Auto Start num. interpolation iter.  ....    10
   Max. Number of Micro iterations      ....    24
   Max. Number of Macro iterations      .... Maxiter - #DIIS iter
   Number of Davidson start vectors     ....     2
   Converg. threshold    (grad. norm)   ....   1.000e-05
   Grad. Scal. Fac. for Micro threshold ....   0.100
   Minimum threshold for Micro iter.    ....   1.000e-02
   NR start threshold (gradient norm)   ....   1.000e-04
   Initial trust radius                 ....   0.400
   Minimum AH scaling param. (alpha)    ....   1.000
   Maximum AH scaling param. (alpha)    .... 1000.000
   Quad. conv. algorithm                .... NR
   White noise on init. David. guess    .... on
   Maximum white noise                  ....   0.010
   Pseudo random numbers                .... off
   Inactive MOs                         .... canonical
   Orbital update algorithm             .... Taylor
   Preconditioner                       .... Diag
   Full preconditioner red. dimension   ....   250
 SOSCF                  CNVSOSCF        .... on
   Start iteration      SOSCFMaxIt      ....   150
   Startup grad/error   SOSCFStart      ....  0.003300
   Hessian update       SOSCFHessUp     .... L-BFGS
 Level Shifting         CNVShift        .... on
   Level shift para.    LevelShift      ....    0.2500
   Turn off err/grad.   ShiftErr        ....    0.0010
 Zerner damping         CNVZerner       .... off
 Static damping         CNVDamp         .... on
   Fraction old density DampFac         ....    0.7000
   Max. Damping (<1)    DampMax         ....    0.9800
   Min. Damping (>=0)   DampMin         ....    0.0000
   Turn off err/grad.   DampErr         ....    0.1000

SCF Procedure:
 Maximum # iterations   MaxIter         ....   125
 SCF integral mode      SCFMode         .... Direct
   Integral package                     .... SHARK and LIBINT hybrid scheme
 Reset frequency        DirectResetFreq ....    20
 Integral Threshold     Thresh          ....  2.500e-11 Eh
 Primitive CutOff       TCut            ....  2.500e-12 Eh

Convergence Tolerance:
 Convergence Check Mode ConvCheckMode   .... Total+1el-Energy
 Convergence forced     ConvForced      .... 0
 Energy Change          TolE            ....  1.000e-08 Eh
 1-El. energy change                    ....  1.000e-05 Eh
 Orbital Gradient       TolG            ....  1.000e-05
 Orbital Rotation angle TolX            ....  1.000e-05
 DIIS Error             TolErr          ....  5.000e-07

------------------------------
INITIAL GUESS: MODEL POTENTIAL
------------------------------
Loading Hartree-Fock densities                     ... done
Calculating cut-offs                               ... done
Initializing the effective Hamiltonian             ... done
Setting up the integral package (SHARK)            ... done
done (   0.5 sec)
Making the grid                                    ... done (   0.3 sec)
Mapping shells                                     ... done
Starting the XC term evaluation                    ... done (   0.2 sec)
  promolecular density results
     # of electrons  =    282.975070537
     EX              =   -281.749540604
     EC              =     -9.925894934
     EX+EC           =   -291.675435538
done (   0.1 sec)
done (   0.2 sec)
Back transforming the eigenvectors                 ... done (   0.1 sec)
done
                      ------------------
                      INITIAL GUESS DONE (   1.7 sec)
                      ------------------
             **** ENERGY FILE WAS UPDATED (EQEGEN-S6.en.tmp) ****
Finished Guess after   2.2 sec
Maximum memory used throughout the entire GUESS-calculation: 137.8 MB


           ************************************************************
           *        Program running with 16 parallel MPI-processes    *
           *              working on a common directory               *
           ************************************************************

-------------------------------------------------------------------------------------------
                                      ORCA LEAN-SCF
                              memory conserving SCF solver
-------------------------------------------------------------------------------------------

----------------------------------------D-I-I-S--------------------------------------------
Iteration    Energy (Eh)           Delta-E    RMSDP     MaxDP     DIISErr   Damp  Time(sec)
-------------------------------------------------------------------------------------------
               ***  Starting incremental Fock matrix formation  ***
    1    -3280.3797377381642946     0.00e+00  3.72e-04  4.99e-02  1.41e-01  0.700  30.0
    2    -3280.8836086731562318    -5.04e-01  2.55e-04  1.82e-02  6.18e-02  0.700  15.7
                               ***Turning on AO-DIIS***
    3    -3281.0934807016019477    -2.10e-01  1.43e-04  2.14e-02  3.57e-02  0.700  14.3
    4    -3281.2313941465663447    -1.38e-01  2.97e-04  4.09e-02  1.51e-02  0.000  13.5
    5    -3281.5321848195435450    -3.01e-01  6.94e-05  8.14e-03  9.18e-03  0.000  14.6
    6    -3281.5358419608601253    -3.66e-03  4.23e-05  8.63e-03  1.17e-02  0.000  12.6
    7    -3281.5370546346666742    -1.21e-03  2.00e-05  2.95e-03  6.57e-03  0.000  12.2
                              *** Initializing SOSCF ***
---------------------------------------S-O-S-C-F--------------------------------------
Iteration    Energy (Eh)           Delta-E    RMSDP     MaxDP     MaxGrad    Time(sec)
--------------------------------------------------------------------------------------
[...]
178:   3201.00   0.000190    0.96  0.000018  (-0.001680 -0.003744 -0.001280)
179:   3201.04   0.001539    7.78  0.000150  (-0.010630 -0.005183 -0.003197)
180:   3202.00   0.001193    6.03  0.000116  (-0.008181 -0.006089 -0.003502)
181:   3203.50   0.000639    3.23  0.000062  (-0.000572 -0.007288 -0.002969)
182:   3203.79   0.000614    3.10  0.000060  ( 0.000594  0.007146  0.002891)
183:   3206.30   0.003159   15.96  0.000307  (-0.004484 -0.007022  0.015429)
184:   3206.76   0.001853    9.36  0.000180  (-0.003634 -0.005590  0.011656)
185:   3233.87   0.000028    0.14  0.000003  (-0.000865 -0.001269  0.000588)
186:   3234.05   0.001567    7.92  0.000151  (-0.006003 -0.009932  0.004061)
187:   3236.85   0.002110   10.66  0.000203  (-0.010602  0.008953  0.003291)
188:   3237.13   0.000044    0.22  0.000004  ( 0.001574 -0.001236 -0.000499)

* The epsilon (eps) is given for a Dirac delta lineshape.
** The dipole moment derivative (T) already includes vibrational overlap.

The first frequency considered to be a vibration is 6
The total number of vibrations considered is 183


--------------------------
THERMOCHEMISTRY AT 298.15K
--------------------------

Temperature         ...   298.15 K
Pressure            ...     1.00 atm
Total Mass          ...   543.61 AMU
Quasi RRHO          ...     True
Cut-Off Frequency   ...     1.00 cm^-1

Throughout the following assumptions are being made:
  (1) The electronic state is orbitally nondegenerate
      but the spin degeneracy is treated
  (2) There are no thermally accessible electronically excited states
  (3) Hindered rotations indicated by low frequency modes are not
      treated as such but are treated as vibrations and this may
      cause some error
  (4) All equations used are the standard statistical mechanics
      equations for an ideal gas
  (5) All vibrations are strictly harmonic

freq.       7.39  E(vib)   ...       0.58 
freq.      12.47  E(vib)   ...       0.57 
freq.      14.31  E(vib)   ...       0.57 
freq.      18.56  E(vib)   ...       0.57 
freq.      19.91  E(vib)   ...       0.56 
freq.      20.20  E(vib)   ...       0.56 
freq.      24.28  E(vib)   ...       0.56 
freq.      24.70  E(vib)   ...       0.56 
freq.      26.78  E(vib)   ...       0.56 
freq.      28.86  E(vib)   ...       0.55 
freq.      29.32  E(vib)   ...       0.55 
freq.      32.21  E(vib)   ...       0.55 
freq.      33.92  E(vib)   ...       0.55 
freq.      43.15  E(vib)   ...       0.53 
freq.      47.17  E(vib)   ...       0.53 
freq.      50.96  E(vib)   ...       0.52 
freq.      52.10  E(vib)   ...       0.52 
freq.      61.18  E(vib)   ...       0.51 
freq.      81.63  E(vib)   ...       0.48 
freq.      84.22  E(vib)   ...       0.48 
freq.      96.95  E(vib)   ...       0.46 
freq.     100.01  E(vib)   ...       0.46 
freq.     101.21  E(vib)   ...       0.46 
freq.     110.48  E(vib)   ...       0.45 
freq.     133.96  E(vib)   ...       0.42 
freq.     143.18  E(vib)   ...       0.41 
freq.     150.66  E(vib)   ...       0.40 
freq.     161.50  E(vib)   ...       0.39 
freq.     174.27  E(vib)   ...       0.38 
freq.     212.78  E(vib)   ...       0.34 
freq.     214.31  E(vib)   ...       0.34 
freq.     221.19  E(vib)   ...       0.33 
freq.     222.09  E(vib)   ...       0.33 
freq.     227.10  E(vib)   ...       0.33 
freq.     228.89  E(vib)   ...       0.32 
freq.     268.03  E(vib)   ...       0.29 
freq.     272.23  E(vib)   ...       0.29 
freq.     314.19  E(vib)   ...       0.25 
freq.     343.51  E(vib)   ...       0.23 
freq.     345.21  E(vib)   ...       0.23 
freq.     346.22  E(vib)   ...       0.23 
freq.     351.45  E(vib)   ...       0.23 
freq.     389.12  E(vib)   ...       0.20 
freq.     399.60  E(vib)   ...       0.19 
freq.     400.33  E(vib)   ...       0.19 
freq.     407.52  E(vib)   ...       0.19 
freq.     407.58  E(vib)   ...       0.19 
freq.     499.19  E(vib)   ...       0.14 
freq.     503.94  E(vib)   ...       0.14 
freq.     504.40  E(vib)   ...       0.14 
freq.     511.71  E(vib)   ...       0.14 
freq.     512.92  E(vib)   ...       0.13 
freq.     514.21  E(vib)   ...       0.13 
freq.     516.32  E(vib)   ...       0.13 
freq.     519.87  E(vib)   ...       0.13 
freq.     532.11  E(vib)   ...       0.13 
freq.     532.55  E(vib)   ...       0.13 
freq.     543.40  E(vib)   ...       0.12 
freq.     548.83  E(vib)   ...       0.12 
freq.     682.30  E(vib)   ...       0.08 
freq.     682.84  E(vib)   ...       0.08 
freq.     683.69  E(vib)   ...       0.07 
freq.     685.66  E(vib)   ...       0.07 
freq.     748.48  E(vib)   ...       0.06 
freq.     751.12  E(vib)   ...       0.06 
freq.     756.37  E(vib)   ...       0.06 
freq.     756.63  E(vib)   ...       0.06 
freq.     823.37  E(vib)   ...       0.05 
freq.     823.48  E(vib)   ...       0.05 
freq.     827.44  E(vib)   ...       0.04 
freq.     829.99  E(vib)   ...       0.04 
freq.     833.53  E(vib)   ...       0.04 
freq.     833.68  E(vib)   ...       0.04 
freq.     835.94  E(vib)   ...       0.04 
freq.     836.31  E(vib)   ...       0.04 
freq.     874.87  E(vib)   ...       0.04 
freq.     876.96  E(vib)   ...       0.04 
freq.     882.84  E(vib)   ...       0.04 
freq.     883.69  E(vib)   ...       0.04 
freq.     896.02  E(vib)   ...       0.03 
freq.     896.29  E(vib)   ...       0.03 
freq.     993.20  E(vib)   ...       0.02 
freq.     995.43  E(vib)   ...       0.02 
freq.    1004.23  E(vib)   ...       0.02 
freq.    1004.29  E(vib)   ...       0.02 
freq.    1004.33  E(vib)   ...       0.02 
freq.    1004.85  E(vib)   ...       0.02 
freq.    1008.36  E(vib)   ...       0.02 
freq.    1009.60  E(vib)   ...       0.02 
freq.    1014.24  E(vib)   ...       0.02 
freq.    1015.30  E(vib)   ...       0.02 
freq.    1031.57  E(vib)   ...       0.02 
freq.    1032.14  E(vib)   ...       0.02 
freq.    1034.54  E(vib)   ...       0.02 
freq.    1035.06  E(vib)   ...       0.02 
freq.    1046.33  E(vib)   ...       0.02 
freq.    1047.40  E(vib)   ...       0.02 
freq.    1058.20  E(vib)   ...       0.02 
freq.    1058.38  E(vib)   ...       0.02 
freq.    1058.42  E(vib)   ...       0.02 
freq.    1058.47  E(vib)   ...       0.02 
freq.    1096.58  E(vib)   ...       0.02 
freq.    1098.07  E(vib)   ...       0.02 
freq.    1100.06  E(vib)   ...       0.02 
freq.    1100.70  E(vib)   ...       0.02 
freq.    1127.36  E(vib)   ...       0.01 
freq.    1127.68  E(vib)   ...       0.01 
freq.    1135.38  E(vib)   ...       0.01 
freq.    1136.94  E(vib)   ...       0.01 
freq.    1239.07  E(vib)   ...       0.01 
freq.    1241.06  E(vib)   ...       0.01 
freq.    1244.00  E(vib)   ...       0.01 
freq.    1245.15  E(vib)   ...       0.01 
freq.    1260.89  E(vib)   ...       0.01 
freq.    1261.03  E(vib)   ...       0.01 
freq.    1264.98  E(vib)   ...       0.01 
freq.    1265.48  E(vib)   ...       0.01 
freq.    1318.01  E(vib)   ...       0.01 
freq.    1318.16  E(vib)   ...       0.01 
freq.    1318.50  E(vib)   ...       0.01 
freq.    1320.19  E(vib)   ...       0.01 
freq.    1357.25  E(vib)   ...       0.01 
freq.    1357.92  E(vib)   ...       0.01 
freq.    1358.16  E(vib)   ...       0.01 
freq.    1360.57  E(vib)   ...       0.01 
freq.    1404.58  E(vib)   ...       0.00 
freq.    1404.62  E(vib)   ...       0.00 
freq.    1404.79  E(vib)   ...       0.00 
freq.    1404.86  E(vib)   ...       0.00 
freq.    1452.63  E(vib)   ...       0.00 
freq.    1452.69  E(vib)   ...       0.00 
freq.    1456.13  E(vib)   ...       0.00 
freq.    1456.91  E(vib)   ...       0.00 
freq.    1476.26  E(vib)   ...       0.00 
freq.    1476.35  E(vib)   ...       0.00 
freq.    1480.03  E(vib)   ...       0.00 
freq.    1480.07  E(vib)   ...       0.00 
freq.    1481.09  E(vib)   ...       0.00 
freq.    1481.17  E(vib)   ...       0.00 
freq.    1484.02  E(vib)   ...       0.00 
freq.    1484.55  E(vib)   ...       0.00 
freq.    1543.82  E(vib)   ...       0.00 
freq.    1543.96  E(vib)   ...       0.00 
freq.    1546.78  E(vib)   ...       0.00 
freq.    1547.42  E(vib)   ...       0.00 
freq.    1623.28  E(vib)   ...       0.00 
freq.    1624.46  E(vib)   ...       0.00 
freq.    1629.20  E(vib)   ...       0.00 
freq.    1630.11  E(vib)   ...       0.00 
freq.    1675.46  E(vib)   ...       0.00 
freq.    1675.75  E(vib)   ...       0.00 
freq.    1682.57  E(vib)   ...       0.00 
freq.    1683.58  E(vib)   ...       0.00 
freq.    2158.12  E(vib)   ...       0.00 
freq.    2160.79  E(vib)   ...       0.00 
freq.    3051.16  E(vib)   ...       0.00 
freq.    3051.20  E(vib)   ...       0.00 
freq.    3052.36  E(vib)   ...       0.00 
freq.    3052.46  E(vib)   ...       0.00 
freq.    3115.53  E(vib)   ...       0.00 
freq.    3115.58  E(vib)   ...       0.00 
freq.    3116.88  E(vib)   ...       0.00 
freq.    3116.90  E(vib)   ...       0.00 
freq.    3144.60  E(vib)   ...       0.00 
freq.    3144.67  E(vib)   ...       0.00 
freq.    3145.43  E(vib)   ...       0.00 
freq.    3145.60  E(vib)   ...       0.00 
freq.    3181.63  E(vib)   ...       0.00 
freq.    3182.01  E(vib)   ...       0.00 
freq.    3191.12  E(vib)   ...       0.00 
freq.    3191.49  E(vib)   ...       0.00 
freq.    3201.00  E(vib)   ...       0.00 
freq.    3201.00  E(vib)   ...       0.00 
freq.    3201.04  E(vib)   ...       0.00 
freq.    3202.00  E(vib)   ...       0.00 
freq.    3203.50  E(vib)   ...       0.00 
freq.    3203.79  E(vib)   ...       0.00 
freq.    3206.30  E(vib)   ...       0.00 
freq.    3206.76  E(vib)   ...       0.00 
freq.    3233.87  E(vib)   ...       0.00 
freq.    3234.05  E(vib)   ...       0.00 
freq.    3236.85  E(vib)   ...       0.00 
freq.    3237.13  E(vib)   ...       0.00 

------------
INNER ENERGY
------------

The inner energy is: U= E(el) + E(ZPE) + E(vib) + E(rot) + E(trans)
    E(el)   - is the total energy from the electronic structure calculation
              = E(kin-el) + E(nuc-el) + E(el-el) + E(nuc-nuc)
    E(ZPE)  - the the zero temperature vibrational energy from the frequency calculation
    E(vib)  - the the finite temperature correction to E(ZPE) due to population
              of excited vibrational states
    E(rot)  - is the rotational thermal energy
    E(trans)- is the translational thermal energy

Summary of contributions to the inner energy U:
Electronic energy                ...  -3282.09514935 Eh
Zero point energy                ...      0.49467532 Eh     310.41 kcal/mol
Thermal vibrational correction   ...      0.03638387 Eh      22.83 kcal/mol
Thermal rotational correction    ...      0.00141627 Eh       0.89 kcal/mol
Thermal translational correction ...      0.00141627 Eh       0.89 kcal/mol
-----------------------------------------------------------------------
Total thermal energy                  -3281.56125761 Eh


Summary of corrections to the electronic energy:
(perhaps to be used in another calculation)
Total thermal correction                  0.03921641 Eh      24.61 kcal/mol
Non-thermal (ZPE) correction              0.49467532 Eh     310.41 kcal/mol
-----------------------------------------------------------------------
Total correction                          0.53389173 Eh     335.02 kcal/mol


--------
ENTHALPY
--------

The enthalpy is H = U + kB*T
                kB is Boltzmann's constant
Total thermal energy              ...  -3281.56125761 Eh 
Thermal Enthalpy correction       ...      0.00094421 Eh       0.59 kcal/mol
-----------------------------------------------------------------------
Total Enthalpy                    ...  -3281.56031341 Eh


Note: Only C1 symmetry has been detected, increase convergence thresholds 
      if your molecule has a higher symmetry. Symmetry factor of 1.0 is   
      used for the rotational entropy correction. 
 

Note: Rotational entropy computed according to Herzberg 
Infrared and Raman Spectra, Chapter V,1, Van Nostrand Reinhold, 1945 
Point Group:  C1, Symmetry Number:   1  
Rotational constants in cm-1:     0.003155     0.002814     0.002336 

Vibrational entropy computed according to the QRRHO of S. Grimme
Chem.Eur.J. 2012 18 9955 using a reference frequency of 100.0 cm-1


-------
ENTROPY
-------

The entropy contributions are T*S = T*(S(el)+S(vib)+S(rot)+S(trans))
     S(el)   - electronic entropy
     S(vib)  - vibrational entropy
     S(rot)  - rotational entropy
     S(trans)- translational entropy
The entropies will be listed as multiplied by the temperature to get
units of energy

Electronic entropy                ...      0.00130891 Eh      0.82 kcal/mol
Vibrational entropy               ...      0.07052685 Eh     44.26 kcal/mol
Rotational entropy                ...      0.01786272 Eh     11.21 kcal/mol
Translational entropy             ...      0.02126908 Eh     13.35 kcal/mol
-----------------------------------------------------------------------
Final entropy term                ...      0.11096756 Eh     69.63 kcal/mol

In case the symmetry of your molecule has not been determined correctly
or in case you have a reason to use a different symmetry number we print 
out the resulting rotational entropy values for sn=1,12:

 non-linear molecules -----------------------------------
|  sn= 1 | S(rot)=       0.01786272 Eh     11.21 kcal/mol|
|  sn= 2 | S(rot)=       0.01720826 Eh     10.80 kcal/mol|
|  sn= 3 | S(rot)=       0.01682543 Eh     10.56 kcal/mol|
|  sn= 4 | S(rot)=       0.01655380 Eh     10.39 kcal/mol|
|  sn= 5 | S(rot)=       0.01634312 Eh     10.26 kcal/mol|
|  sn= 6 | S(rot)=       0.01617097 Eh     10.15 kcal/mol|
|  sn= 7 | S(rot)=       0.01602543 Eh     10.06 kcal/mol|
|  sn= 8 | S(rot)=       0.01589935 Eh      9.98 kcal/mol|
|  sn= 9 | S(rot)=       0.01578814 Eh      9.91 kcal/mol|
|  sn=10 | S(rot)=       0.01568866 Eh      9.84 kcal/mol|
|  sn=11 | S(rot)=       0.01559867 Eh      9.79 kcal/mol|
|  sn=12 | S(rot)=       0.01551652 Eh      9.74 kcal/mol|
 linear molecules ---------------------------------------
|  Dinfh | S(rot)=       0.01104706 Eh      6.93 kcal/mol|
|  Cinfv | S(rot)=       0.01170152 Eh      7.34 kcal/mol|
 --------------------------------------------------------


-------------------
GIBBS FREE ENERGY
-------------------

The Gibbs free energy is G = H - T*S

Total enthalpy                    ...  -3281.56031341 Eh 
Total entropy correction          ...     -0.11096756 Eh    -69.63 kcal/mol
-----------------------------------------------------------------------
Final Gibbs free energy         ...  -3281.67128096 Eh

For completeness - the Gibbs free energy minus the electronic energy
G-E(el)                           ...      0.42386838 Eh    265.98 kcal/mol


Maximum memory used throughout the entire PROP-calculation: 2193.3 MB

--------------------------------
SUGGESTED CITATIONS FOR THIS RUN
--------------------------------

Below you find a list of papers that are relevant to this ORCA run
We neither can nor want to force you to cite these papers, but we appreciate if you do
You receive ORCA, which is the product of decades of hard work by many enthusiastic individuals, for free
The only thing we kindly ask in return is that you cite our papers,
We deeply appreciate it, if you show your appreciation for ORCA by not just citing the generic ORCA reference.

Please note that relegating all ORCA citations to the supporting information does *not* help us.
SI sections are not indexed - citations you put there will not count into any citation statistics
But we need these citations in order to attract the funding resources that allow us to do what we are doing

Therefore, if you are a happy ORCA user, please consider citing a few of the papers listed below in the main body of your paper

In addition to the list printed below, the program has created the file EQEGEN-S6.bibtex that contains the list in bibtex format
You can import this file easily into all common literature databanks and citation aid programs


List of essential papers. We consider these as the minimum necessary citations

  1. Neese,F.
     Software update: the ORCA program system, version 5.0
     WIRES Comput. Molec. Sci., 2022 12(1)e1606
     doi.org/10.1002/wcms.1606

List of papers to cite with high priority. The work reported in these papers was absolutely
necessary for this run to complete.
Our perspective: the developers of density functionals and basis sets usually get cited in chemistry papers
Good! But without the algorithms to do something with them, the functionals or basis sets would not do anything.
Hence, in our opinion, the algorithm design and method developments papers are equally worthy of getting cited

  1. Neese,F.
     An improvement of the resolution of the identity approximation for the formation of the Coulomb matrix
     J. Comp. Chem., 2003 24(14)1740-1747
     doi.org/10.1002/jcc.10318
  2. Neese,F.; Wennmohs,F.; Hansen,A.; Becker,U.
     Efficient, approximate and parallel Hartree-Fock and hybrid DFT calculations. A 'chain-of-spheres' algorithm for the Hartree-Fock exchange
     Chem. Phys., 2009 356(1-3)98-109
     doi.org/10.1016/j.chemphys.2008.10.036
  3. Bykov,D.; Petrenko,T.; Izsak,R.; Kossmann,S.; Becker,U.; Valeev,E.; Neese,F.
     Efficient implementation of the analytic second derivatives of Hartree-Fock and hybrid DFT energies: a detailed analysis of different approximations
     Molec. Phys., 2015 113 1961-1977
     doi.org/10.1080/00268976.2015.1025114
  4. Helmich-Paris,B.; de Souza,B.; Neese,F.; Izsák,R.
     An improved chain of spheres for exchange algorithm
     J. Chem. Phys., 2021 155 104109
     doi.org/doi: 10.1063/5.0058766.
  5. Neese,F.
     The SHARK Integral Generation and Digestion System
     J. Comp. Chem., 2022  1-16
     doi.org/10.1002/jcc.26942

List of suggested additional citations. These are papers that are important in the 'surrounding' of 
of this run, or papers that preceded the highly important papers. If you like your results we are grateful for a citation.

  1. Izsak,R.; Neese,F.
     An overlap fitted chain of spheres exchange method
     J. Chem. Phys., 2011 135 144105
     doi.org/10.1063/1.3646921
  2. Izsak,R.; Hansen,A.; Neese,F.
     The resolution of identity and chain of spheres approximations for the LPNO-CCSD singles Fock term
     Molec. Phys., 2012 110 2413-2417
     doi.org/10.1080/00268976.2012.687466
  3. Neese,F.
     The ORCA program system
     WIRES Comput. Molec. Sci., 2012 2(1)73-78
     doi.org/10.1002/wcms.81
  4. Izsak,R.; Neese,F.; Klopper,W.
     Robust fitting techniques in the chain of spheres approximation to the Fock exchange: The role of the complementary space
     J. Chem. Phys., 2013 139 
     doi.org/10.1063/1.4819264
  5. Neese,F.
     Software update: the ORCA program system, version 4.0
     WIRES Comput. Molec. Sci., 2018 8(1)1-6
     doi.org/10.1002/wcms.1327
  6. Neese,F.; Wennmohs,F.; Becker,U.; Riplinger,C.
     The ORCA quantum chemistry program package
     J. Chem. Phys., 2020 152 Art. No. L224108
     doi.org/10.1063/5.0004608

List of optional additional citations

  1. Neese,F.
     Approximate second-order SCF convergence for spin unrestricted wavefunctions
     Chem. Phys. Lett., 2000 325(1-3)93-98
     doi.org/10.1016/s0009-2614(00)00662-x

Timings for individual modules:

Sum of individual times          ...    40225.642 sec (= 670.427 min)
Startup calculation              ...      526.896 sec (=   8.782 min)   1.3 %
SCF iterations                   ...    17340.067 sec (= 289.001 min)  43.1 %
Property integrals               ...     5036.291 sec (=  83.938 min)  12.5 %
SCF Response                     ...    13252.199 sec (= 220.870 min)  32.9 %
Property calculations            ...     1419.439 sec (=  23.657 min)   3.5 %
SCF Gradient evaluation          ...     2648.395 sec (=  44.140 min)   6.6 %
Geometry relaxation              ...        2.355 sec (=   0.039 min)   0.0 %
                             ****ORCA TERMINATED NORMALLY****
TOTAL RUN TIME: 0 days 11 hours 11 minutes 26 seconds 806 msec
