
                                 *****************
                                 * O   R   C   A *
                                 *****************

                                            #,                                       
                                            ###                                      
                                            ####                                     
                                            #####                                    
                                            ######                                   
                                           ########,                                 
                                     ,,################,,,,,                         
                               ,,#################################,,                 
                          ,,##########################################,,             
                       ,#########################################, ''#####,          
                    ,#############################################,,   '####,        
                  ,##################################################,,,,####,       
                ,###########''''           ''''###############################       
              ,#####''   ,,,,##########,,,,          '''####'''          '####       
            ,##' ,,,,###########################,,,                        '##       
           ' ,,###''''                  '''############,,,                           
         ,,##''                                '''############,,,,        ,,,,,,###''
      ,#''                                            '''#######################'''  
     '                                                          ''''####''''         
             ,#######,   #######,   ,#######,      ##                                
            ,#'     '#,  ##    ##  ,#'     '#,    #''#        ,####,   ,####,        
            ##       ##  ##   ,#'  ##            #'  '#       #'       #'  '#        
            ##       ##  #######   ##           ,######,      #####,   #    #        
            '#,     ,#'  ##    ##  '#,     ,#' ,#      #,     #,   #   #,  ,#        
             '#######'   ##     ##  '#######'  #'      '#     '####' # '####'        



                #########################################################
                #                        -***-                          #
                #          Department of theory and spectroscopy        #
                #                                                       #
                #                      Frank Neese                      #
                #                                                       #
                #     Directorship, Architecture, Infrastructure        #
                #                    SHARK, DRIVERS                     #
                #        Core code/Algorithms in most modules           #
                #                                                       #
                #        Max Planck Institute fuer Kohlenforschung      #
                #                Kaiser Wilhelm Platz 1                 #
                #                 D-45470 Muelheim/Ruhr                 #
                #                      Germany                          #
                #                                                       #
                #                  All rights reserved                  #
                #                        -***-                          #
                #########################################################


                         Program Version 6.0.1  -  RELEASE   -


 With contributions from (in alphabetic order):
[Max-Planck-Institut fuer Kohlenforschung]                               
  Daniel Aravena         : Magnetic Suceptibility                        
  Michael Atanasov       : Ab Initio Ligand Field Theory (pilot matlab implementation)
  Alexander A. Auer      : GIAO ZORA, VPT2 properties, NMR spectrum      
  Ute Becker             : All parallelization in ORCA, NUMFREQ, NUMCALC 
  Giovanni Bistoni       : ED, misc. LED, open-shell LED, HFLD           
  Martin Brehm           : Molecular dynamics                            
  Dmytro Bykov           : pre 5.0 version of the SCF Hessian            
  Marcos Casanova-Páez   : Triplet and SCS-CIS(D). UHF-(DLPNO)-IP/EA/STEOM-CCSD. UHF-CVS-IP/STEOM-CCSD   
  Vijay G. Chilkuri      : MRCI spin determinant printing, contributions to CSF-ICE 
  Pauline Colinet        : FMM embedding                                 
  Dipayan Datta          : RHF DLPNO-CCSD density                        
  Achintya Kumar Dutta   : EOM-CC, STEOM-CC                              
  Nicolas Foglia         : Exact transition moments, OPA infrastructure, MCD improvements    
  Dmitry Ganyushin       : Spin-Orbit,Spin-Spin,Magnetic field MRCI      
  Miquel Garcia-Rates    : C-PCM and meta-GGA Hessian, CCSD/C-PCM, Gaussian charge scheme 
  Tiago L. C. Gouveia    : GS-ROHF, GS-ROCIS                             
  Yang Guo               : DLPNO-NEVPT2, F12-NEVPT2, CIM, IAO-localization        
  Andreas Hansen         : Spin unrestricted coupled pair/coupled cluster methods 
  Ingolf Harden          : AUTO-CI MPn and infrastructure                
  Benjamin Helmich-Paris : MC-RPA, TRAH-(SCF,CASSCF), AVAS, COSX integrals, SCF dyn. polar. 
  Lee Huntington         : MR-EOM, pCC                                   
  Robert Izsak           : Overlap fitted RIJCOSX, COSX-SCS-MP3, EOM     
  Riya Kayal             : Wick's Theorem for AUTO-CI, AUTO-CI UHF-CCSDT 
  Emily Kempfer          : AUTO-CI, RHF CISDT and CCSDT                  
  Christian Kollmar      : KDIIS, OOCD, Brueckner-CCSD(T), CCSD density, CASPT2, CASPT2-K, improved NEVPT2 
  Axel Koslowski         : Symmetry handling                             
  Simone Kossmann        : meta-GGA functionals, TD-DFT gradient, OOMP2, (MP2 Hessian; deprecated post 5.0) 
  Lucas Lang             : DCDCAS                                        
  Marvin Lechner         : AUTO-CI (C++ implementation), FIC-MRCC        
  Spencer Leger          : CASSCF response                               
  Dagmar Lenk            : GEPOL surface, SMD, ORCA-2-JSON               
  Dimitrios Liakos       : Extrapolation schemes; Compound Job, initial MDCI parallelization 
  Dimitrios Manganas     : Further ROCIS development; embedding schemes. LFT, Crystal Embedding 
  Dimitrios Pantazis     : SARC Basis sets                               
  Anastasios Papadopoulos: AUTO-CI, single reference methods and gradients 
  Taras Petrenko         : pre 6.0 DFT Hessian and TD-DFT gradient, (ASA, deprecated), ECA, 1-Electron XAS/XES, NRVS 
  Peter Pinski           : DLPNO-MP2, DLPNO-MP2 Gradient                 
  Christoph Reimann      : Effective Core Potentials                     
  Marius Retegan         : Local ZFS, SOC                                
  Christoph Riplinger    : Optimizer, TS searches, QM/MM, DLPNO-CCSD(T), (RO)-DLPNO pert. Triples 
  Michael Roemelt        : Original ROCIS implementation                 
  Masaaki Saitow         : Open-shell DLPNO-CCSD energy and density      
  Barbara Sandhoefer     : DKH picture change effects                    
  Kantharuban Sivalingam : CASSCF convergence/infrastructure, NEVPT2 and variants, FIC-MRCI 
  Bernardo de Souza      : ESD, SOC TD-DFT                               
  Georgi L. Stoychev     : AutoAux, RI-MP2 NMR, DLPNO-MP2 response, X2C  
  Van Anh Tran           : RI-MP2 g-tensors                              
  Willem Van den Heuvel  : Paramagnetic NMR                              
  Zikuan Wang            : NOTCH, Electric field optimization            
  Frank Wennmohs         : Technical directorship and infrastructure     
  Hang Xu                : AUTO-CI-Response properties                   
                                                                         
[FACCTs GmbH]                                                            
  Markus Bursch, Miquel Garcia-Rates, Christoph Riplinger, Bernardo de Souza, Georgi L. Stoychev 
                                                                 
  APM, Basis sets (HGBS, AHGBS, def-TZVP (Ac-Lr), def2-XVPD (La-Lu)), CI-OPT, improved COSX, DLPNO-Multilevel,           
  DOCKER, DRACO, updates on ESD, GOAT, IRC, LR-CPCM, MBIS, meta-GGA TD-DFT gradient, ML-optimized integration grids, 
  MM, NACMEs, nearIR, NEB, NEB-TS, NL-DFT gradient (VV10), 2- and 3-layer-ONIOM, interface openCOSMO-RS, QMMM,   
  Crystal-QMMM, SF, symmetry and pop. for TD-DFT, r2SCAN hybrids, SOLVATOR                                   
                                                                         
[Other institutions]                                                     
  V. Asgeirsson          : NEB                                           
  Christoph Bannwarth    : sTDA-DFT, sTD-DFT, PBEh-3c, B97-3c, D3        
  Sebastian Ehlert       : rSCAN, r2SCAN, r2SCAN-3c, D4, dhf basis sets  
  Marvin Friede          : D4 for Fr, Ra, Ac-Lr                          
  Lars Goerigk           : TD-DFT with DH, B97 family of functionals     
  Stefan Grimme          : VdW corrections, initial TS optimization, DFT functionals, gCP, sTDA/sTD-DF 
  Waldemar Hujo          : DFT-NL                                        
  H. Jonsson             : NEB                                           
  Holger Kruse           : gCP                                           
  Marcel Mueller         : wB97X-3c, vDZP basis set                      
  Hagen Neugebauer       : wr2SCAN                                       
  Tobias Risthaus        : range-separated hybrid DFT                    
  Lukas Wittmann         : regularized MP2, r2SCAN double-hybrids, wr2SCAN        
                                                                         
We gratefully acknowledge several colleagues who have allowed us to      
interface, adapt or use parts of their codes:                            
  Ed Valeev, F. Pavosevic, A. Kumar             : LibInt (2-el integral package), F12 methods 
  Garnet Chan, S. Sharma, J. Yang, R. Olivares  : DMRG                   
  Ulf Ekstrom                                   : XCFun DFT Library      
  Mihaly Kallay                                 : mrcc  (arbitrary order and MRCC methods)
  Frank Weinhold                                : gennbo (NPA and NBO analysis)           
  Simon Mueller                                 : openCOSMO-RS                            
  Christopher J. Cramer and Donald G. Truhlar   : smd solvation model                     
  S Lehtola, MJT Oliveira, MAL Marques          : LibXC Library                           
  Liviu Ungur et al                             : ANISO software                          


 Your calculation uses the libint2 library for the computation of 2-el integrals
 For citations please refer to: http://libint.valeyev.net

 Your ORCA version has been built with support for libXC version: 6.2.2
 For citations please refer to: https://libxc.gitlab.io

 This ORCA versions uses:
   CBLAS   interface :  Fast vector & matrix operations
   LAPACKE interface :  Fast linear algebra routines
   SCALAPACK package :  Parallel linear algebra routines
   Shared memory     :  Shared parallel matrices
   BLAS/LAPACK       :  OpenBLAS 0.3.27  USE64BITINT DYNAMIC_ARCH NO_AFFINITY Cooperlake SINGLE_THREADED
        Core in use  :  Cooperlake
   Copyright (c) 2011-2014, The OpenBLAS Project


NOTE: MaxCore=3600 MB was set to SCF,MP2,MDCI,CIPSI,MRCI and CIS
      => If you want to overwrite this, your respective input block should be placed after the MaxCore statement
Warning: RI is on but no J-basis has been assigned. Assigning Def2/J (nothing to worry about!)
================================================================================

----- Orbital basis set information -----
Your calculation utilizes the basis: def2-TZVP
   F. Weigend and R. Ahlrichs, Phys. Chem. Chem. Phys. 7, 3297 (2005).

----- AuxJ basis set information -----
Your calculation utilizes the auxiliary basis: def2/J
   F. Weigend, Phys. Chem. Chem. Phys. 8, 1057 (2006).

================================================================================
                                        WARNINGS
                       Please study these warnings very carefully!
================================================================================


WARNING: your system is open-shell and RHF/RKS was chosen
  ===> : WILL SWITCH to UHF/UKS


WARNING: Geometry Optimization
  ===> : Switching off AutoStart
         For restart on a previous wavefunction, please use MOREAD

================================================================================
                                       INPUT FILE
================================================================================
NAME = GIQMUO-S6.inp
|  1> ! PBE0 def2-TZVP  Opt Freq DEFGRID3
|  2> 
|  3> %maxcore 3600
|  4> 
|  5> %pal
|  6>     nprocs 16
|  7> end
|  8> 
|  9> *xyz 0 4
| 10> Mn 2.0802 2.0626 0.2159
| 11> O 1.3268 3.5213 -1.1441
| 12> O 2.1744 0.8147 -1.5371
| 13> O 2.74 0.5274 1.5401
| 14> O 1.8822 3.2433 1.9881
| 15> O 0.0464 1.2973 0.6426
| 16> N 4.2072 2.8322 -0.1062
| 17> N 6.5383 2.5328 0.1839
| 18> C 5.2722 2.159 0.3175
| 19> C 6.7448 3.688 -0.4215
| 20> C 5.7303 4.455 -0.9032
| 21> C 4.4607 3.9942 -0.7182
| 22> C 0.8299 4.7585 -3.0446
| 23> C 1.2891 3.4544 -2.3921
| 24> C 1.6039 2.3934 -3.2044
| 25> C 1.9846 1.1531 -2.7173
| 26> C 2.1518 0.0051 -3.7299
| 27> C 2.718 -0.8774 3.3971
| 28> C 2.5369 0.507 2.7698
| 29> C 2.1369 1.534 3.5986
| 30> C 1.8377 2.8031 3.1464
| 31> C 1.3575 3.8234 4.1843
| 32> F 1.6427 5.7465 -2.7227
| 33> F -0.3097 5.1359 -2.6187
| 34> F 0.802 4.743 -4.3233
| 35> F 2.3857 0.4091 -4.9233
| 36> F 1.1041 -0.7227 -3.7464
| 37> F 3.1566 -0.7733 -3.4223
| 38> F 1.6592 -1.6077 3.1815
| 39> F 3.7269 -1.537 2.8793
| 40> F 2.9253 -0.8415 4.6999
| 41> F 1.488 3.4651 5.4017
| 42> F 1.981 4.9419 4.0704
| 43> F 0.1323 4.1061 3.9938
| 44> H 5.0629 1.3764 0.7116
| 45> H 7.6158 3.8795 -0.5583
| 46> H 5.9107 5.2114 -1.3575
| 47> H 3.7388 4.4417 -1.0182
| 48> H 1.4612 2.4643 -4.0945
| 49> H 2.1386 0.9974 4.4667
| 50> H -0.7576 1.6954 0.5474
| 51> H -0.1665 0.4945 0.9853
| 52> *
| 53> 
| 54>                          ****END OF INPUT****
================================================================================

                       *****************************
                       * Geometry Optimization Run *
                       *****************************

Geometry optimization settings:
Update method            Update   .... BFGS
Choice of coordinates    CoordSys .... (2022) Redundant Internals
Initial Hessian          InHess   .... Almloef's Model
Max. no of cycles        MaxIter  .... 126

Convergence Tolerances:
Energy Change            TolE     ....  5.0000e-06 Eh
Max. Gradient            TolMAXG  ....  3.0000e-04 Eh/bohr
RMS Gradient             TolRMSG  ....  1.0000e-04 Eh/bohr
Max. Displacement        TolMAXD  ....  4.0000e-03 bohr
RMS Displacement         TolRMSD  ....  2.0000e-03 bohr
Strict Convergence                .... False

------------------------------------------------------------------------------
                        ORCA OPTIMIZATION COORDINATE SETUP
------------------------------------------------------------------------------

The optimization will be done in redundant internal coordinates (2022)
Making redundant internal coordinates   ...  (2022 redundants) done
Evaluating the initial hessian          ...  (Almloef) done
Evaluating the coordinates              ...  done
Calculating the B-matrix                .... done
Calculating the G-matrix                .... done
Diagonalizing the G-matrix              .... done
Small eigenvalue found = 7.111e-03
Small eigenvalue found = 1.056e-02
Small eigenvalue found = 1.331e-02
Small eigenvalue found = 1.463e-02
Small eigenvalue found = 2.297e-02
Small eigenvalue found = 2.647e-02
The first mode is                       ....  103
The number of degrees of freedom        ....  120

    -----------------------------------------------------------------
                    Redundant Internal Coordinates


    -----------------------------------------------------------------
         Definition                    Initial Value    Approx d2E/dq
    -----------------------------------------------------------------
      1. B(O   1,Mn  0)                  2.1319         0.370970   
      2. B(O   2,Mn  0)                  2.1539         0.342217   
      3. B(O   3,Mn  0)                  2.1321         0.370758   
      4. B(O   4,Mn  0)                  2.1387         0.361851   
      5. B(O   5,Mn  0)                  2.2145         0.273862   
      6. B(N   6,Mn  0)                  2.2848         0.211571   
      7. B(C   8,N   6)                  1.3293         0.699479   
      8. B(C   8,N   7)                  1.3269         0.705659   
      9. B(C   9,N   7)                  1.3205         0.722450   
     10. B(C  10,C   9)                  1.3600         0.697654   
     11. B(C  11,C  10)                  1.3632         0.689317   
     12. B(C  11,N   6)                  1.3376         0.678500   
     13. B(C  13,C  12)                  1.5288         0.375194   
     14. B(C  13,O   1)                  1.2504         0.934677   
     15. B(C  14,C  13)                  1.3728         0.665485   
     16. B(C  15,C  14)                  1.3858         0.634426   
     17. B(C  15,O   2)                  1.2423         0.962623   
     18. B(C  16,C  15)                  1.5399         0.360264   
     19. B(C  18,C  17)                  1.5306         0.372694   
     20. B(C  18,O   3)                  1.2465         0.947935   
     21. B(C  19,C  18)                  1.3790         0.650564   
     22. B(C  20,C  19)                  1.3801         0.647986   
     23. B(C  20,O   4)                  1.2399         0.971203   
     24. B(C  21,C  20)                  1.5326         0.370033   
     25. B(F  22,C  12)                  1.3192         0.674298   
     26. B(F  23,C  12)                  1.2738         0.796878   
     27. B(F  24,C  12)                  1.2791         0.781454   
     28. B(F  25,C  16)                  1.2815         0.774715   
     29. B(F  26,C  16)                  1.2758         0.791009   
     30. B(F  27,C  16)                  1.3077         0.703444   
     31. B(F  28,C  17)                  1.3042         0.712674   
     32. B(F  29,C  17)                  1.3119         0.692753   
     33. B(F  30,C  17)                  1.3197         0.673226   
     34. B(F  31,C  21)                  1.2757         0.791201   
     35. B(F  32,C  21)                  1.2856         0.763010   
     36. B(F  33,C  21)                  1.2717         0.802864   
     37. B(H  34,C   8)                  0.9009         0.721361   
     38. B(H  35,C   9)                  0.9022         0.717779   
     39. B(H  36,C  10)                  0.9006         0.722112   
     40. B(H  37,C  11)                  0.9008         0.721638   
     41. B(H  38,C  14)                  0.9043         0.712484   
     42. B(H  39,C  19)                  1.0206         0.464742   
     43. B(H  40,O   5)                  0.9022         0.642961   
     44. B(H  41,O   5)                  0.8985         0.651817   
     45. A(O   4,Mn  0,N   6)           90.9768         0.404730   
     46. A(O   3,Mn  0,O   4)           84.9233         0.447475   
     47. A(O   1,Mn  0,N   6)           90.4918         0.406513   
     48. A(O   4,Mn  0,O   5)           86.9100         0.423721   
     49. A(O   1,Mn  0,O   4)           96.7857         0.447522   
     50. A(O   2,Mn  0,O   3)           94.2885         0.442977   
     51. A(O   2,Mn  0,O   5)           89.8147         0.419521   
     52. A(O   2,Mn  0,N   6)           92.2754         0.400768   
     53. A(O   3,Mn  0,O   5)           85.1642         0.425568   
     54. A(O   1,Mn  0,O   2)           83.8391         0.443023   
     55. A(O   1,Mn  0,O   5)           91.9954         0.425611   
     56. A(O   3,Mn  0,N   6)           92.4075         0.406472   
     57. A(Mn  0,O   1,C  13)          127.6451         0.472878   
     58. A(Mn  0,O   2,C  15)          127.4940         0.468453   
     59. A(Mn  0,O   3,C  18)          125.0344         0.474054   
     60. A(Mn  0,O   4,C  20)          125.5503         0.474048   
     61. A(H  40,O   5,H  41)          102.9059         0.346120   
     62. A(Mn  0,O   5,H  40)          130.2114         0.372820   
     63. A(Mn  0,O   5,H  41)          126.8625         0.373700   
     64. A(Mn  0,N   6,C   8)          122.0287         0.405592   
     65. A(C   8,N   6,C  11)          115.7199         0.444996   
     66. A(Mn  0,N   6,C  11)          122.2471         0.403418   
     67. A(C   8,N   7,C   9)          116.2214         0.450808   
     68. A(N   6,C   8,H  34)          113.1570         0.403785   
     69. A(N   6,C   8,N   7)          126.1380         0.448172   
     70. A(N   7,C   8,H  34)          120.6947         0.404413   
     71. A(N   7,C   9,H  35)          113.9645         0.405739   
     72. A(C  10,C   9,H  35)          123.1433         0.405852   
     73. A(N   7,C   9,C  10)          122.6241         0.452870   
     74. A(C   9,C  10,C  11)          117.1308         0.452011   
     75. A(C   9,C  10,H  36)          120.1938         0.406284   
     76. A(C  11,C  10,H  36)          122.6090         0.405422   
     77. A(N   6,C  11,C  10)          122.1576         0.446762   
     78. A(C  10,C  11,H  37)          122.2251         0.405375   
     79. A(N   6,C  11,H  37)          115.6001         0.401650   
     80. A(F  22,C  12,F  24)          105.4526         0.449465   
     81. A(F  23,C  12,F  24)          108.5620         0.463353   
     82. A(C  13,C  12,F  24)          115.0166         0.409080   
     83. A(F  22,C  12,F  23)          104.3435         0.451063   
     84. A(C  13,C  12,F  23)          112.2563         0.410500   
     85. A(C  13,C  12,F  22)          110.4649         0.398572   
     86. A(C  12,C  13,C  14)          118.3980         0.401960   
     87. A(O   1,C  13,C  14)          128.6836         0.470612   
     88. A(O   1,C  13,C  12)          112.9178         0.424190   
     89. A(C  13,C  14,C  15)          123.1419         0.441470   
     90. A(C  15,C  14,H  38)          117.3555         0.398593   
     91. A(C  13,C  14,H  38)          119.0554         0.401960   
     92. A(C  14,C  15,C  16)          117.7697         0.395760   
     93. A(O   2,C  15,C  16)          113.8933         0.423345   
     94. A(O   2,C  15,C  14)          128.2910         0.469032   
     95. A(F  26,C  16,F  27)          107.1256         0.453936   
     96. A(F  25,C  16,F  27)          105.4540         0.452221   
     97. A(C  15,C  16,F  27)          111.8703         0.398692   
     98. A(F  25,C  16,F  26)          108.5239         0.461996   
     99. A(C  15,C  16,F  26)          110.1592         0.407026   
    100. A(C  15,C  16,F  25)          113.4021         0.405531   
    101. A(F  29,C  17,F  30)          106.4108         0.439642   
    102. A(F  28,C  17,F  30)          107.8161         0.441899   
    103. A(C  18,C  17,F  30)          113.4887         0.397993   
    104. A(F  28,C  17,F  29)          106.1143         0.444190   
    105. A(C  18,C  17,F  29)          112.5804         0.399999   
    106. A(C  18,C  17,F  28)          110.0392         0.402001   
    107. A(O   3,C  18,C  17)          113.5669         0.424752   
    108. A(C  17,C  18,C  19)          117.4900         0.399887   
    109. A(O   3,C  18,C  19)          128.9009         0.469871   
    110. A(C  20,C  19,H  39)          139.6925         0.371403   
    111. A(C  18,C  19,H  39)           96.8442         0.371657   
    112. A(C  18,C  19,C  20)          123.4226         0.441348   
    113. A(C  19,C  20,C  21)          117.2729         0.399105   
    114. A(O   4,C  20,C  21)          114.0499         0.426052   
    115. A(O   4,C  20,C  19)          128.6663         0.471623   
    116. A(F  32,C  21,F  33)          105.1037         0.461966   
    117. A(F  31,C  21,F  33)          107.6939         0.465041   
    118. A(C  20,C  21,F  33)          110.3897         0.410036   
    119. A(F  31,C  21,F  32)          106.2178         0.460733   
    120. A(C  20,C  21,F  32)          111.5458         0.406358   
    121. A(C  20,C  21,F  31)          115.2917         0.408975   
    122. D(C  13,O   1,Mn  0,O   2)     -9.4812         0.002179   
    123. D(C  13,O   1,Mn  0,O   4)    173.7967         0.002179   
    124. D(C  13,O   1,Mn  0,N   6)     82.7544         0.002179   
    125. D(C  13,O   1,Mn  0,O   5)    -99.0792         0.002179   
    126. D(C  15,O   2,Mn  0,O   1)      8.0509         0.002079   
    127. D(C  15,O   2,Mn  0,O   5)    100.0780         0.002079   
    128. D(C  15,O   2,Mn  0,N   6)    -82.1984         0.002079   
    129. D(C  15,O   2,Mn  0,O   3)   -174.7854         0.002079   
    130. D(C  18,O   3,Mn  0,N   6)    109.4311         0.002178   
    131. D(C  18,O   3,Mn  0,O   5)    -68.6544         0.002178   
    132. D(C  18,O   3,Mn  0,O   4)     18.6635         0.002178   
    133. D(C  18,O   3,O   1,C  13)   -165.4971         0.001500   
    134. D(C  18,O   3,Mn  0,O   2)   -158.1043         0.002178   
    135. D(C  20,O   4,Mn  0,O   1)    159.6466         0.002146   
    136. D(C  20,O   4,Mn  0,O   3)    -17.4113         0.002146   
    137. D(C  20,O   4,O   2,C  15)    165.8560         0.001500   
    138. D(C  20,O   4,Mn  0,O   5)     68.0024         0.002146   
    139. D(C  20,O   4,Mn  0,N   6)   -109.7418         0.002146   
    140. D(H  41,O   5,Mn  0,O   1)    159.7265         0.001900   
    141. D(H  41,O   5,Mn  0,O   4)   -103.5822         0.001900   
    142. D(H  41,O   5,Mn  0,O   2)     75.8976         0.001900   
    143. D(H  41,O   5,Mn  0,O   3)    -18.4219         0.001900   
    144. D(H  40,O   5,Mn  0,O   3)    159.6538         0.001900   
    145. D(H  40,O   5,Mn  0,O   2)   -106.0266         0.001900   
    146. D(H  40,O   5,Mn  0,O   4)     74.4935         0.001900   
    147. D(H  40,O   5,Mn  0,O   1)    -22.1978         0.001900   
    148. D(C   8,N   6,Mn  0,O   4)     95.4562         0.001742   
    149. D(C   8,N   6,Mn  0,O   2)    -83.8947         0.001742   
    150. D(C   8,N   6,Mn  0,O   3)     10.4969         0.001742   
    151. D(C  11,N   6,Mn  0,O   1)     13.0422         0.001742   
    152. D(C   8,N   6,Mn  0,O   1)   -167.7484         0.001742   
    153. D(C  11,N   6,O   5,H  41)    174.4538         0.001500   
    154. D(C  11,N   6,O   5,H  40)     -9.5884         0.001500   
    155. D(C   8,N   6,O   5,H  41)     -7.7801         0.001500   
    156. D(C   8,N   6,O   5,H  40)    168.1777         0.001500   
    157. D(C  11,N   6,Mn  0,O   4)    -83.7532         0.001742   
    158. D(C  11,N   6,Mn  0,O   3)   -168.7125         0.001742   
    159. D(C  11,N   6,Mn  0,O   2)     96.8959         0.001742   
    160. D(H  34,C   8,N   7,C   9)    179.1898         0.037348   
    161. D(N   6,C   8,N   7,C   9)      0.4388         0.037348   
    162. D(H  34,C   8,N   6,C  11)   -179.0344         0.040482   
    163. D(H  34,C   8,N   6,Mn  0)      1.7078         0.040482   
    164. D(N   7,C   8,N   6,C  11)     -0.2026         0.040482   
    165. D(N   7,C   8,N   6,Mn  0)   -179.4604         0.040482   
    166. D(H  35,C   9,N   7,C   8)   -175.0994         0.039330   
    167. D(C  10,C   9,N   7,C   8)     -0.8784         0.039330   
    168. D(H  36,C  10,C   9,H  35)     -2.3549         0.034260   
    169. D(H  36,C  10,C   9,N   7)   -176.0459         0.034260   
    170. D(C  11,C  10,C   9,H  35)    174.7594         0.034260   
    171. D(C  11,C  10,C   9,N   7)      1.0684         0.034260   
    172. D(H  37,C  11,C  10,H  36)     -2.1903         0.033380   
    173. D(H  37,C  11,C  10,C   9)   -179.2293         0.033380   
    174. D(N   6,C  11,C  10,H  36)    176.2302         0.033380   
    175. D(N   6,C  11,C  10,C   9)     -0.8088         0.033380   
    176. D(H  37,C  11,N   6,C   8)    178.9114         0.037865   
    177. D(H  37,C  11,N   6,Mn  0)     -1.8326         0.037865   
    178. D(C  10,C  11,N   6,C   8)      0.3930         0.037865   
    179. D(C  10,C  11,N   6,Mn  0)    179.6491         0.037865   
    180. D(O   1,C  13,C  12,F  24)    178.6797         0.010521   
    181. D(O   1,C  13,C  12,F  23)    -56.5322         0.010521   
    182. D(O   1,C  13,C  12,F  22)     59.4716         0.010521   
    183. D(C  14,C  13,O   1,Mn  0)      6.4952         0.070143   
    184. D(C  12,C  13,O   1,Mn  0)   -173.2305         0.070143   
    185. D(C  14,C  13,C  12,F  23)    123.7112         0.010521   
    186. D(C  14,C  13,C  12,F  22)   -120.2849         0.010521   
    187. D(H  38,C  14,C  13,C  12)     -5.5323         0.030941   
    188. D(H  38,C  14,C  13,O   1)    174.7549         0.030941   
    189. D(C  15,C  14,C  13,C  12)   -177.6481         0.030941   
    190. D(C  15,C  14,C  13,O   1)      2.6392         0.030941   
    191. D(C  16,C  15,C  14,H  38)      0.8118         0.027933   
    192. D(C  16,C  15,C  14,C  13)    173.0528         0.027933   
    193. D(O   2,C  15,C  14,H  38)   -176.5560         0.027933   
    194. D(O   2,C  15,C  14,C  13)     -4.3150         0.027933   
    195. D(C  16,C  15,O   2,Mn  0)    179.1681         0.075041   
    196. D(C  14,C  15,O   2,Mn  0)     -3.3792         0.075041   
    197. D(F  27,C  16,C  15,O   2)    -39.5924         0.009759   
    198. D(F  26,C  16,C  15,C  14)    -98.2962         0.009759   
    199. D(F  26,C  16,C  15,O   2)     79.4445         0.009759   
    200. D(F  25,C  16,C  15,C  14)     23.5507         0.009759   
    201. D(F  25,C  16,C  15,O   2)   -158.7086         0.009759   
    202. D(C  19,C  18,C  17,F  28)     98.4685         0.010391   
    203. D(O   3,C  18,C  17,F  30)    159.7117         0.010391   
    204. D(O   3,C  18,C  17,F  29)     38.7581         0.010391   
    205. D(O   3,C  18,C  17,F  28)    -79.3835         0.010391   
    206. D(C  19,C  18,O   3,Mn  0)    -15.7704         0.072441   
    207. D(C  19,C  18,C  17,F  29)   -143.3900         0.010391   
    208. D(C  17,C  18,O   3,Mn  0)    161.7809         0.072441   
    209. D(H  39,C  19,C  18,C  17)      3.2366         0.029472   
    210. D(H  39,C  19,C  18,O   3)   -179.2935         0.029472   
    211. D(C  20,C  19,C  18,C  17)   -174.8545         0.029472   
    212. D(C  20,C  19,C  18,O   3)      2.6154         0.029472   
    213. D(C  21,C  20,C  19,H  39)      0.7433         0.029223   
    214. D(C  21,C  20,C  19,C  18)    177.8128         0.029223   
    215. D(O   4,C  20,C  19,H  39)   -177.9703         0.029223   
    216. D(O   4,C  20,C  19,C  18)     -0.9008         0.029223   
    217. D(C  21,C  20,O   4,Mn  0)   -165.9548         0.076586   
    218. D(C  19,C  20,O   4,Mn  0)     12.7931         0.076586   
    219. D(F  33,C  21,C  20,O   4)     67.5945         0.010253   
    220. D(F  32,C  21,C  20,C  19)    132.2311         0.010253   
    221. D(F  32,C  21,C  20,O   4)    -48.8688         0.010253   
    222. D(F  31,C  21,C  20,C  19)     10.9878         0.010253   
    223. D(F  31,C  21,C  20,O   4)   -170.1121         0.010253   
    -----------------------------------------------------------------

Number of atoms                         .... 42
Number of degrees of freedom            .... 223


         *************************************************************
         *                GEOMETRY OPTIMIZATION CYCLE   1            *
         *************************************************************
---------------------------------
CARTESIAN COORDINATES (ANGSTROEM)
---------------------------------
  Mn     2.080200    2.062600    0.215900
  O      1.326800    3.521300   -1.144100
  O      2.174400    0.814700   -1.537100
  O      2.740000    0.527400    1.540100
  O      1.882200    3.243300    1.988100
  O      0.046400    1.297300    0.642600
  N      4.207200    2.832200   -0.106200
  N      6.538300    2.532800    0.183900
  C      5.272200    2.159000    0.317500
  C      6.744800    3.688000   -0.421500
  C      5.730300    4.455000   -0.903200
  C      4.460700    3.994200   -0.718200
  C      0.829900    4.758500   -3.044600
  C      1.289100    3.454400   -2.392100
  C      1.603900    2.393400   -3.204400
  C      1.984600    1.153100   -2.717300
  C      2.151800    0.005100   -3.729900
  C      2.718000   -0.877400    3.397100
  C      2.536900    0.507000    2.769800
  C      2.136900    1.534000    3.598600
  C      1.837700    2.803100    3.146400
  C      1.357500    3.823400    4.184300
  F      1.642700    5.746500   -2.722700
  F     -0.309700    5.135900   -2.618700
  F      0.802000    4.743000   -4.323300
  F      2.385700    0.409100   -4.923300
  F      1.104100   -0.722700   -3.746400
  F      3.156600   -0.773300   -3.422300
  F      1.659200   -1.607700    3.181500
  F      3.726900   -1.537000    2.879300
  F      2.925300   -0.841500    4.699900
  F      1.488000    3.465100    5.401700
  F      1.981000    4.941900    4.070400
  F      0.132300    4.106100    3.993800
  H      5.062900    1.376400    0.711600
  H      7.615800    3.879500   -0.558300
  H      5.910700    5.211400   -1.357500
  H      3.738800    4.441700   -1.018200
  H      1.461200    2.464300   -4.094500
  H      2.138600    0.997400    4.466700
  H     -0.757600    1.695400    0.547400
  H     -0.166500    0.494500    0.985300

----------------------------
CARTESIAN COORDINATES (A.U.)
----------------------------
  NO LB      ZA    FRAG     MASS         X           Y           Z
   0 Mn   25.0000    0    54.940    3.931008    3.897749    0.407992
   1 O     8.0000    0    15.999    2.507289    6.654293   -2.162036
   2 O     8.0000    0    15.999    4.109021    1.539560   -2.904698
   3 O     8.0000    0    15.999    5.177850    0.996642    2.910367
   4 O     8.0000    0    15.999    3.556843    6.128949    3.756965
   5 O     8.0000    0    15.999    0.087683    2.451542    1.214338
   6 N     7.0000    0    14.007    7.950456    5.352082   -0.200689
   7 N     7.0000    0    14.007   12.355596    4.786298    0.347521
   8 C     6.0000    0    12.011    9.963014    4.079919    0.599988
   9 C     6.0000    0    12.011   12.745825    6.969310   -0.796520
  10 C     6.0000    0    12.011   10.828698    8.418730   -1.706801
  11 C     6.0000    0    12.011    8.429501    7.547944   -1.357201
  12 C     6.0000    0    12.011    1.568284    8.992262   -5.753460
  13 C     6.0000    0    12.011    2.436046    6.527870   -4.520414
  14 C     6.0000    0    12.011    3.030932    4.522871   -6.055438
  15 C     6.0000    0    12.011    3.750350    2.179043   -5.134953
  16 C     6.0000    0    12.011    4.066313    0.009638   -7.048490
  17 C     6.0000    0    12.011    5.136276   -1.658046    6.419589
  18 C     6.0000    0    12.011    4.794046    0.958091    5.234163
  19 C     6.0000    0    12.011    4.038156    2.898840    6.800368
  20 C     6.0000    0    12.011    3.472750    5.297091    5.945834
  21 C     6.0000    0    12.011    2.565303    7.225179    7.907181
  22 F     9.0000    0    18.998    3.104253   10.859311   -5.145157
  23 F     9.0000    0    18.998   -0.585248    9.705444   -4.948626
  24 F     9.0000    0    18.998    1.515560    8.962971   -8.169853
  25 F     9.0000    0    18.998    4.508320    0.773087   -9.303689
  26 F     9.0000    0    18.998    2.086447   -1.365705   -7.079670
  27 F     9.0000    0    18.998    5.965110   -1.461325   -6.467210
  28 F     9.0000    0    18.998    3.135434   -3.038113    6.012164
  29 F     9.0000    0    18.998    7.042820   -2.904509    5.441088
  30 F     9.0000    0    18.998    5.528016   -1.590205    8.881524
  31 F     9.0000    0    18.998    2.811912    6.548090   10.207734
  32 F     9.0000    0    18.998    3.743547    9.338838    7.691941
  33 F     9.0000    0    18.998    0.250011    7.759404    7.547188
  34 H     1.0000    0     1.008    9.567494    2.601019    1.344729
  35 H     1.0000    0     1.008   14.391776    7.331193   -1.055034
  36 H     1.0000    0     1.008   11.169604    9.848119   -2.565303
  37 H     1.0000    0     1.008    7.065308    8.393597   -1.924119
  38 H     1.0000    0     1.008    2.761268    4.656852   -7.737484
  39 H     1.0000    0     1.008    4.041368    1.884813    8.440840
  40 H     1.0000    0     1.008   -1.431657    3.203842    1.034436
  41 H     1.0000    0     1.008   -0.314639    0.934470    1.861947

--------------------------------
INTERNAL COORDINATES (ANGSTROEM)
--------------------------------
 Mn     0   0   0     0.000000000000     0.00000000     0.00000000
 O      1   0   0     2.131904606215     0.00000000     0.00000000
 O      1   2   0     2.153865606300    83.83912479     0.00000000
 O      1   2   3     2.132060205529   176.61132279   303.40505617
 O      1   2   3     2.138679342492    96.78574409   183.27786758
 O      1   2   3     2.214520133121    91.99544116   270.40201060
 N      1   2   3     2.284767290119    90.49181447    92.23556065
 N      7   1   2     2.368084791556   148.93154106   191.77842127
 C      8   7   1     1.326870231032    26.95722049     0.88651426
 C      8   7   1     1.320469026521    89.26483681   181.28021450
 C     10   8   7     1.359975786549   122.62414944   359.32049628
 C      7   1   2     1.337553830692   122.24710359    13.04221688
 C      2   1   3     2.321524003753   164.26277706   335.23424057
 C      2   1   3     1.250360308071   127.64513932   350.51880489
 C     14   2   1     1.372826037778   128.68363477     6.49516179
 C      3   1   2     1.242340790605   127.49397834     8.05093277
 C     16   3   1     1.539876163852   113.89332568   179.16807591
 C      4   1   2     2.328603882158   157.93727309   288.33105147
 C      4   1   2     1.246526317412   125.03435350   258.23223986
 C     19   4   1     1.378999071791   128.90094396   344.22960243
 C      5   1   2     1.239925473567   125.55034246   159.64664079
 C     21   5   1     1.532592750864   114.04986079   194.04519530
 F     13   2   1     1.319245030311    93.86989888   254.11267490
 F     13   2   1     1.273777739639    94.33970801   149.38959433
 F     13   2   1     1.279098256585   144.74578873    18.05524916
 F     17  16   3     1.281455722996   113.40214159   201.29135907
 F     17  16   3     1.275790100291   110.15924145    79.44447114
 F     17  16   3     1.307726026353   111.87028904   320.40764480
 F     18   4   1     1.304177476420   102.33659727    66.09138049
 F     18   4   1     1.311894892893    88.92816885   172.35591971
 F     18   4   1     1.319677968294   140.29814003   287.17905569
 F     22  21   5     1.275724068911   115.29171972   189.88794791
 F     22  21   5     1.285600136123   111.54583070   311.13119270
 F     22  21   5     1.271740767609   110.38970766    67.59452971
 H      9   8   7     0.900879603499   120.69468911   178.75093362
 H     10   8   7     0.902234720015   113.96452130   185.09955025
 H     11  10   8     0.900596252491   120.19382782   183.95410410
 H     12   7   1     0.900775143973   115.60006387   358.16742871
 H     15  14   2     0.904250026265   119.05539233   174.75494465
 H     20  19   4     1.020558699929    96.84417220   180.70647320
 H      6   1   2     0.902198786299   130.21139206   337.80222253
 H      6   1   2     0.898475119299   126.86249035   159.72647716

---------------------------
INTERNAL COORDINATES (A.U.)
---------------------------
 Mn     0   0   0     0.000000000000     0.00000000     0.00000000
 O      1   0   0     4.028715849391     0.00000000     0.00000000
 O      1   2   0     4.070216125178    83.83912479     0.00000000
 O      1   2   3     4.029009889482   176.61132279   303.40505617
 O      1   2   3     4.041518245584    96.78574409   183.27786758
 O      1   2   3     4.184836569654    91.99544116   270.40201060
 N      1   2   3     4.317584458067    90.49181447    92.23556065
 N      7   1   2     4.475031717945   148.93154106   191.77842127
 C      8   7   1     2.507421351904    26.95722049     0.88651426
 C      8   7   1     2.495324828449    89.26483681   181.28021450
 C     10   8   7     2.569981785342   122.62414944   359.32049628
 C      7   1   2     2.527610429386   122.24710359    13.04221688
 C      2   1   3     4.387044580417   164.26277706   335.23424057
 C      2   1   3     2.362838550980   127.64513932   350.51880489
 C     14   2   1     2.594265240916   128.68363477     6.49516179
 C      3   1   2     2.347683859242   127.49397834     8.05093277
 C     16   3   1     2.909944229834   113.89332568   179.16807591
 C      4   1   2     4.400423611664   157.93727309   288.33105147
 C      4   1   2     2.355593358634   125.03435350   258.23223986
 C     19   4   1     2.605930584616   128.90094396   344.22960243
 C      5   1   2     2.343119571514   125.55034246   159.64664079
 C     21   5   1     2.896180573965   114.04986079   194.04519530
 F     13   2   1     2.493011810824    93.86989888   254.11267490
 F     13   2   1     2.407091083403    94.33970801   149.38959433
 F     13   2   1     2.417145403323   144.74578873    18.05524916
 F     17  16   3     2.421600369209   113.40214159   201.29135907
 F     17  16   3     2.410893893918   110.15924145    79.44447114
 F     17  16   3     2.471244048008   111.87028904   320.40764480
 F     18   4   1     2.464538260461   102.33659727    66.09138049
 F     18   4   1     2.479122064059    88.92816885   172.35591971
 F     18   4   1     2.493829945045   140.29814003   287.17905569
 F     22  21   5     2.410769112694   115.29171972   189.88794791
 F     22  21   5     2.429432175005   111.54583070   311.13119270
 F     22  21   5     2.403241764125   110.38970766    67.59452971
 H      9   8   7     1.702415730248   120.69468911   178.75093362
 H     10   8   7     1.704976529343   113.96452130   185.09955025
 H     11  10   8     1.701880274443   120.19382782   183.95410410
 H     12   7   1     1.702218330353   115.60006387   358.16742871
 H     15  14   2     1.708784906232   119.05539233   174.75494465
 H     20  19   4     1.928576446456    96.84417220   180.70647320
 H      6   1   2     1.704908624462   130.21139206   337.80222253
 H      6   1   2     1.697871913618   126.86249035   159.72647716

---------------------
BASIS SET INFORMATION
---------------------
There are 6 groups of distinct atoms

 Group   1 Type Mn  : 17s11p7d1f contracted to 6s4p4d1f pattern {842111/6311/4111/1}
 Group   2 Type O   : 11s6p2d1f contracted to 5s3p2d1f pattern {62111/411/11/1}
 Group   3 Type N   : 11s6p2d1f contracted to 5s3p2d1f pattern {62111/411/11/1}
 Group   4 Type C   : 11s6p2d1f contracted to 5s3p2d1f pattern {62111/411/11/1}
 Group   5 Type F   : 11s6p2d1f contracted to 5s3p2d1f pattern {62111/411/11/1}
 Group   6 Type H   : 5s1p contracted to 3s1p pattern {311/1}

Atom   0Mn   basis set group =>   1
Atom   1O    basis set group =>   2
Atom   2O    basis set group =>   2
Atom   3O    basis set group =>   2
Atom   4O    basis set group =>   2
Atom   5O    basis set group =>   2
Atom   6N    basis set group =>   3
Atom   7N    basis set group =>   3
Atom   8C    basis set group =>   4
Atom   9C    basis set group =>   4
Atom  10C    basis set group =>   4
Atom  11C    basis set group =>   4
Atom  12C    basis set group =>   4
Atom  13C    basis set group =>   4
Atom  14C    basis set group =>   4
Atom  15C    basis set group =>   4
Atom  16C    basis set group =>   4
Atom  17C    basis set group =>   4
Atom  18C    basis set group =>   4
Atom  19C    basis set group =>   4
Atom  20C    basis set group =>   4
Atom  21C    basis set group =>   4
Atom  22F    basis set group =>   5
Atom  23F    basis set group =>   5
Atom  24F    basis set group =>   5
Atom  25F    basis set group =>   5
Atom  26F    basis set group =>   5
Atom  27F    basis set group =>   5
Atom  28F    basis set group =>   5
Atom  29F    basis set group =>   5
Atom  30F    basis set group =>   5
Atom  31F    basis set group =>   5
Atom  32F    basis set group =>   5
Atom  33F    basis set group =>   5
Atom  34H    basis set group =>   6
Atom  35H    basis set group =>   6
Atom  36H    basis set group =>   6
Atom  37H    basis set group =>   6
Atom  38H    basis set group =>   6
Atom  39H    basis set group =>   6
Atom  40H    basis set group =>   6
Atom  41H    basis set group =>   6
---------------------------------
AUXILIARY/J BASIS SET INFORMATION
---------------------------------
There are 6 groups of distinct atoms

 Group   1 Type Mn  : 19s5p5d3f3g contracted to 8s5p5d2f3g pattern {121111111/11111/11111/21/111}
 Group   2 Type O   : 12s5p4d2f1g contracted to 6s4p3d1f1g pattern {711111/2111/211/2/1}
 Group   3 Type N   : 12s5p4d2f1g contracted to 6s4p3d1f1g pattern {711111/2111/211/2/1}
 Group   4 Type C   : 12s5p4d2f1g contracted to 6s4p3d1f1g pattern {711111/2111/211/2/1}
 Group   5 Type F   : 12s5p4d2f1g contracted to 6s4p3d1f1g pattern {711111/2111/211/2/1}
 Group   6 Type H   : 5s2p1d contracted to 3s1p1d pattern {311/2/1}

Atom   0Mn   basis set group =>   1
Atom   1O    basis set group =>   2
Atom   2O    basis set group =>   2
Atom   3O    basis set group =>   2
Atom   4O    basis set group =>   2
Atom   5O    basis set group =>   2
Atom   6N    basis set group =>   3
Atom   7N    basis set group =>   3
Atom   8C    basis set group =>   4
Atom   9C    basis set group =>   4
Atom  10C    basis set group =>   4
Atom  11C    basis set group =>   4
Atom  12C    basis set group =>   4
Atom  13C    basis set group =>   4
Atom  14C    basis set group =>   4
Atom  15C    basis set group =>   4
Atom  16C    basis set group =>   4
Atom  17C    basis set group =>   4
Atom  18C    basis set group =>   4
Atom  19C    basis set group =>   4
Atom  20C    basis set group =>   4
Atom  21C    basis set group =>   4
Atom  22F    basis set group =>   5
Atom  23F    basis set group =>   5
Atom  24F    basis set group =>   5
Atom  25F    basis set group =>   5
Atom  26F    basis set group =>   5
Atom  27F    basis set group =>   5
Atom  28F    basis set group =>   5
Atom  29F    basis set group =>   5
Atom  30F    basis set group =>   5
Atom  31F    basis set group =>   5
Atom  32F    basis set group =>   5
Atom  33F    basis set group =>   5
Atom  34H    basis set group =>   6
Atom  35H    basis set group =>   6
Atom  36H    basis set group =>   6
Atom  37H    basis set group =>   6
Atom  38H    basis set group =>   6
Atom  39H    basis set group =>   6
Atom  40H    basis set group =>   6
Atom  41H    basis set group =>   6


           ************************************************************
           *        Program running with 16 parallel MPI-processes    *
           *              working on a common directory               *
           ************************************************************
------------------------------------------------------------------------------
                             ORCA STARTUP CALCULATIONS
                           -- RI-GTO INTEGRALS CHOSEN --
------------------------------------------------------------------------------
------------------------------------------------------------------------------
                   ___                                                        
                  /   \      - P O W E R E D   B Y -                         
                 /     \                                                     
                 |  |  |   _    _      __       _____    __    __             
                 |  |  |  | |  | |    /  \     |  _  \  |  |  /  |          
                  \  \/   | |  | |   /    \    | | | |  |  | /  /          
                 / \  \   | |__| |  /  /\  \   | |_| |  |  |/  /          
                |  |  |   |  __  | /  /__\  \  |    /   |      \           
                |  |  |   | |  | | |   __   |  |    \   |  |\   \          
                \     /   | |  | | |  |  |  |  | |\  \  |  | \   \       
                 \___/    |_|  |_| |__|  |__|  |_| \__\ |__|  \__/        
                                                                              
                      - O R C A' S   B I G   F R I E N D -                    
                                      &                                       
                       - I N T E G R A L  F E E D E R -                       
                                                                              
 v1 FN, 2020, v2 2021, v3 2022-2024                                           
------------------------------------------------------------------------------


----------------------
SHARK INTEGRAL PACKAGE
----------------------

Number of atoms                             ...     42
Number of basis functions                   ...   1116
Number of shells                            ...    410
Maximum angular momentum                    ...      3
Integral batch strategy                     ... SHARK/LIBINT Hybrid
RI-J (if used) integral strategy            ... SPLIT-RIJ (Revised 2003 algorithm where possible)
Printlevel                                  ...      1
Contraction scheme used                     ... SEGMENTED contraction
Prescreening option                         ... SCHWARTZ
   Thresh                                   ... 2.500e-11
   Tcut                                     ... 2.500e-12
   Tpresel                                  ... 2.500e-12 
Coulomb Range Separation                    ... NOT USED
Exchange Range Separation                   ... NOT USED
Multipole approximations                    ... NOT USED
Finite Nucleus Model                        ... NOT USED
CABS basis                                  ... NOT available
Auxiliary Coulomb fitting basis             ... AVAILABLE
   # of basis functions in Aux-J            ...   1794
   # of shells in Aux-J                     ...    558
   Maximum angular momentum in Aux-J        ...      4
Auxiliary J/K fitting basis                 ... NOT available
Auxiliary Correlation fitting basis         ... NOT available
Auxiliary 'external' fitting basis          ... NOT available

Checking pre-screening integrals            ... done (  0.0 sec) Dimension = 410
Check shell pair data                       ... done (  0.0 sec)
Shell pair information
Shell pair cut-off parameter TPreSel        ...   2.5e-12
Total number of shell pairs                 ...     84255
Shell pairs after pre-screening             ...     46289
Total number of primitive shell pairs       ...    277949
Primitive shell pairs kept                  ...     93817
          la=0 lb=0:  10002 shell pairs
          la=1 lb=0:  13126 shell pairs
          la=1 lb=1:   4310 shell pairs
          la=2 lb=0:   6798 shell pairs
          la=2 lb=1:   4626 shell pairs
          la=2 lb=2:   1186 shell pairs
          la=3 lb=0:   2968 shell pairs
          la=3 lb=1:   2058 shell pairs
          la=3 lb=2:    993 shell pairs
          la=3 lb=3:    222 shell pairs

Calculating one electron integrals          ... done (  0.1 sec)
done (  0.2 sec)
Calculating Nuclear repulsion               ... done (  0.0 sec) ENN=   4754.679386068193 Eh

Diagonalization of the overlap matrix:
Smallest eigenvalue                        ... 4.950e-05
Time for diagonalization                   ...    0.099 sec
Threshold for overlap eigenvalues          ... 1.000e-07
Number of eigenvalues below threshold      ... 0
Time for construction of square roots      ...    0.134 sec
Total time needed                          ...    0.253 sec

-------------------
DFT GRID GENERATION
-------------------

General Integration Accuracy     IntAcc      ... 4.959
Radial Grid Type                 RadialGrid  ... OptM3 with GC (2021)
Angular Grid (max. ang.)         AngularGrid ... 6 (Lebedev-590)
Angular grid pruning method      GridPruning ... 4 (adaptive)
Weight generation scheme         WeightScheme... mBecke (2022)
Basis function cutoff            BFCut       ... 1.0000e-11
Integration weight cutoff        WCut        ... 1.0000e-14
Partially contracted basis set               ... off
Rotationally invariant grid construction     ... off
Angular grids for H and He will be reduced by one unit
Core-polarized basis detected: some atoms will have their core
                               angular grid increased.

Total number of grid points                  ...   566537
Total number of batches                      ...     8874
Average number of points per batch           ...       63
Average number of grid points per atom       ...    13489

--------------------
COSX GRID GENERATION
--------------------

GRIDX 1
-------
General Integration Accuracy     IntAcc      ... 4.020
Radial Grid Type                 RadialGrid  ... OptM3 with GC (2021)
Angular Grid (max. ang.)         AngularGrid ... 2 (Lebedev-110)
Angular grid pruning method      GridPruning ... 4 (adaptive)
Weight generation scheme         WeightScheme... mBecke (2022)
Basis function cutoff            BFCut       ... 1.0000e-11
Integration weight cutoff        WCut        ... 1.0000e-14
Partially contracted basis set               ... on
Rotationally invariant grid construction     ... off
Angular grids for H and He will be reduced by one unit
Core-polarized basis detected: some atoms will have their core
                               angular grid increased.

Total number of grid points                  ...    69853
Total number of batches                      ...      567
Average number of points per batch           ...      123
Average number of grid points per atom       ...     1663
UseSFitting                                  ... on

GRIDX 2
-------
General Integration Accuracy     IntAcc      ... 4.338
Radial Grid Type                 RadialGrid  ... OptM3 with GC (2021)
Angular Grid (max. ang.)         AngularGrid ... 3 (Lebedev-194)
Angular grid pruning method      GridPruning ... 4 (adaptive)
Weight generation scheme         WeightScheme... mBecke (2022)
Basis function cutoff            BFCut       ... 1.0000e-11
Integration weight cutoff        WCut        ... 1.0000e-14
Partially contracted basis set               ... on
Rotationally invariant grid construction     ... off
Angular grids for H and He will be reduced by one unit
Core-polarized basis detected: some atoms will have their core
                               angular grid increased.

Total number of grid points                  ...   147611
Total number of batches                      ...     1174
Average number of points per batch           ...      125
Average number of grid points per atom       ...     3515
UseSFitting                                  ... on

GRIDX 3
-------
General Integration Accuracy     IntAcc      ... 4.871
Radial Grid Type                 RadialGrid  ... OptM3 with GC (2021)
Angular Grid (max. ang.)         AngularGrid ... 4 (Lebedev-302)
Angular grid pruning method      GridPruning ... 4 (adaptive)
Weight generation scheme         WeightScheme... mBecke (2022)
Basis function cutoff            BFCut       ... 1.0000e-11
Integration weight cutoff        WCut        ... 1.0000e-14
Partially contracted basis set               ... on
Rotationally invariant grid construction     ... off
Angular grids for H and He will be reduced by one unit
Core-polarized basis detected: some atoms will have their core
                               angular grid increased.

Total number of grid points                  ...   265474
Total number of batches                      ...     2097
Average number of points per batch           ...      126
Average number of grid points per atom       ...     6321
UseSFitting                                  ... on
Initializing property integral containers    ... done (  0.0 sec)

SHARK setup successfully completed in   8.6 seconds

Maximum memory used throughout the entire STARTUP-calculation: 167.2 MB


           ************************************************************
           *        Program running with 16 parallel MPI-processes    *
           *              working on a common directory               *
           ************************************************************
-------------------------------------------------------------------------------
                                 ORCA GUESS
                   Start orbitals & Density for SCF / CASSCF
-------------------------------------------------------------------------------

------------
SCF SETTINGS
------------
Hamiltonian:
 Density Functional     Method          .... DFT(GTOs)
 Exchange Functional    Exchange        .... PBE
   PBE kappa parameter   XKappa         ....  0.804000
   PBE mue parameter    XMuePBE         ....  0.219520
 Correlation Functional Correlation     .... PBE
   PBE beta parameter  CBetaPBE         ....  0.066725
 LDA part of GGA corr.  LDAOpt          .... PW91-LDA
 Gradients option       PostSCFGGA      .... off
 Hybrid DFT is turned on
   Fraction HF Exchange ScalHFX         ....  0.250000
   Scaling of DF-GGA-X  ScalDFX         ....  0.750000
   Scaling of DF-GGA-C  ScalDFC         ....  1.000000
   Scaling of DF-LDA-C  ScalLDAC        ....  1.000000
   Perturbative correction              ....  0.000000
   NL short-range parameter             ....  6.900000
 RI-approximation to the Coulomb term is turned on
   Number of AuxJ basis functions       .... 1794
   RIJ-COSX (HFX calculated with COS-X)).... on


General Settings:
 Integral files         IntName         .... GIQMUO-S6
 Hartree-Fock type      HFTyp           .... UHF
 Total Charge           Charge          ....    0
 Multiplicity           Mult            ....    4
 Number of Electrons    NEL             ....  279
 Basis Dimension        Dim             .... 1116
 Nuclear Repulsion      ENuc            ....   4754.6793860682 Eh

Convergence Acceleration:
 AO-DIIS                CNVDIIS         .... on
   Start iteration      DIISMaxIt       ....    12
   Startup error        DIISStart       ....  0.200000
   # of expansion vecs  DIISMaxEq       ....     5
   Bias factor          DIISBfac        ....   1.050
   Max. coefficient     DIISMaxC        ....  10.000
 MO-DIIS                CNVKDIIS        .... off
 Trust-Rad. Augm. Hess. CNVTRAH         .... auto
   Auto Start mean grad. ratio tolernc. ....  1.125000
   Auto Start start iteration           ....    50
   Auto Start num. interpolation iter.  ....    10
   Max. Number of Micro iterations      ....    24
   Max. Number of Macro iterations      .... Maxiter - #DIIS iter
   Number of Davidson start vectors     ....     2
   Converg. threshold    (grad. norm)   ....   1.000e-05
   Grad. Scal. Fac. for Micro threshold ....   0.100
   Minimum threshold for Micro iter.    ....   1.000e-02
   NR start threshold (gradient norm)   ....   1.000e-04
   Initial trust radius                 ....   0.400
   Minimum AH scaling param. (alpha)    ....   1.000
   Maximum AH scaling param. (alpha)    .... 1000.000
   Quad. conv. algorithm                .... NR
   White noise on init. David. guess    .... on
   Maximum white noise                  ....   0.010
   Pseudo random numbers                .... off
   Inactive MOs                         .... canonical
   Orbital update algorithm             .... Taylor
   Preconditioner                       .... Diag
   Full preconditioner red. dimension   ....   250
 SOSCF                  CNVSOSCF        .... on
   Start iteration      SOSCFMaxIt      ....   150
   Startup grad/error   SOSCFStart      ....  0.003300
   Hessian update       SOSCFHessUp     .... L-BFGS
 Level Shifting         CNVShift        .... on
   Level shift para.    LevelShift      ....    0.2500
   Turn off err/grad.   ShiftErr        ....    0.0010
 Zerner damping         CNVZerner       .... off
 Static damping         CNVDamp         .... on
   Fraction old density DampFac         ....    0.7000
   Max. Damping (<1)    DampMax         ....    0.9800
   Min. Damping (>=0)   DampMin         ....    0.0000
   Turn off err/grad.   DampErr         ....    0.1000

SCF Procedure:
 Maximum # iterations   MaxIter         ....   125
 SCF integral mode      SCFMode         .... Direct
   Integral package                     .... SHARK and LIBINT hybrid scheme
 Reset frequency        DirectResetFreq ....    20
 Integral Threshold     Thresh          ....  2.500e-11 Eh
 Primitive CutOff       TCut            ....  2.500e-12 Eh

Convergence Tolerance:
 Convergence Check Mode ConvCheckMode   .... Total+1el-Energy
 Convergence forced     ConvForced      .... 0
 Energy Change          TolE            ....  1.000e-08 Eh
 1-El. energy change                    ....  1.000e-05 Eh
 Orbital Gradient       TolG            ....  1.000e-05
 Orbital Rotation angle TolX            ....  1.000e-05
 DIIS Error             TolErr          ....  5.000e-07

------------------------------
INITIAL GUESS: MODEL POTENTIAL
------------------------------
Loading Hartree-Fock densities                     ... done
Calculating cut-offs                               ... done
Initializing the effective Hamiltonian             ... done
Setting up the integral package (SHARK)            ... done
done (   0.3 sec)
Making the grid                                    ... done (   0.3 sec)
Mapping shells                                     ... done
Starting the XC term evaluation                    ... done (   0.1 sec)
  promolecular density results
     # of electrons  =    278.994639248
     EX              =   -299.069495581
     EC              =     -9.954440222
     EX+EC           =   -309.023935802
done (   0.1 sec)
done (   0.1 sec)
Back transforming the eigenvectors                 ... done (   0.1 sec)
done
                      ------------------
                      INITIAL GUESS DONE (   1.2 sec)
                      ------------------
             **** ENERGY FILE WAS UPDATED (GIQMUO-S6.en.tmp) ****
Finished Guess after   1.7 sec
Maximum memory used throughout the entire GUESS-calculation: 96.2 MB


           ************************************************************
           *        Program running with 16 parallel MPI-processes    *
           *              working on a common directory               *
           ************************************************************

-------------------------------------------------------------------------------------------
                                      ORCA LEAN-SCF
                              memory conserving SCF solver
-------------------------------------------------------------------------------------------

----------------------------------------D-I-I-S--------------------------------------------
Iteration    Energy (Eh)           Delta-E    RMSDP     MaxDP     DIISErr   Damp  Time(sec)
-------------------------------------------------------------------------------------------
               ***  Starting incremental Fock matrix formation  ***
    1    -3369.9646536607133385     0.00e+00  7.42e-04  1.68e-01  2.79e-01  0.700  19.3
Warning: op=0 Small HOMO/LUMO gap (  -1.215) - skipping pre-diagonalization
         LevelShift set to 1.000 Eh
         Will do a full diagonalization
    2    -3369.8870269037452090     7.76e-02  5.37e-04  7.35e-02  2.13e-01  0.700  10.5
                               ***Turning on AO-DIIS***
    3    -3370.4745302808851193    -5.88e-01  3.28e-04  3.86e-02  5.65e-02  0.700   9.5
    4    -3370.7120993455873759    -2.38e-01  6.09e-04  7.83e-02  5.37e-02  0.000   9.1
    5    -3370.9564905461229500    -2.44e-01  2.06e-04  4.51e-02  2.22e-01  0.000   9.6
    6    -3371.0389200612053173    -8.24e-02  5.10e-05  8.90e-03  1.97e-01  0.700   8.7
    7    -3371.0703095545213728    -3.14e-02  7.27e-05  1.20e-02  1.83e-01  0.700   7.8
    8    -3371.1124823686905074    -4.22e-02  8.50e-05  1.34e-02  1.65e-01  0.700   7.9
    9    -3371.1625250303013672    -5.00e-02  1.37e-04  1.71e-02  1.42e-01  0.700   8.3
   10    -3371.2385196723644185    -7.60e-02  1.25e-04  1.57e-02  9.96e-02  0.700   8.5
   11    -3371.2907092590376124    -5.22e-02  3.33e-04  4.69e-02  6.86e-02  0.000   8.3
   12    -3371.3727208603559120    -8.20e-02  5.39e-05  9.13e-03  1.30e-02  0.000   9.2
   13    -3371.3781817312119529    -5.46e-03  5.08e-05  9.02e-03  1.20e-02  0.000   7.9
   14    -3371.3822078127650457    -4.03e-03  4.48e-05  6.03e-03  1.21e-02  0.000   7.7
   15    -3371.3854331088805338    -3.23e-03  3.28e-05  4.05e-03  1.11e-02  0.000   7.7
   16    -3371.3878343779069837    -2.40e-03  2.45e-05  4.84e-03  1.03e-02  0.000   7.5
   17    -3371.3897283258893367    -1.89e-03  2.73e-05  3.30e-03  7.74e-03  0.000   7.2
   18    -3371.3912757512462122    -1.55e-03  2.28e-05  3.08e-03  7.73e-03  0.000   7.3
   19    -3371.3924866728639245    -1.21e-03  1.77e-05  2.84e-03  6.79e-03  0.000   7.3
   20    -3371.3934034852500190    -9.17e-04  1.48e-05  2.54e-03  5.94e-03  0.000   7.1
               *** Restarting incremental Fock matrix formation ***
                             ****Resetting DIIS****
   21    -3371.3941247769680558    -7.21e-04  8.21e-05  1.46e-02  5.12e-03  0.000  11.8
   22    -3371.3959276674586363    -1.80e-03  2.48e-05  3.99e-03  8.28e-03  0.000   8.1
                              *** Initializing SOSCF ***
---------------------------------------S-O-S-C-F--------------------------------------
Iteration    Energy (Eh)           Delta-E    RMSDP     MaxDP     MaxGrad    Time(sec)
--------------------------------------------------------------------------------------
   23    -3371.3964083263217617    -4.81e-04  1.88e-05  3.88e-03  2.70e-03     8.2
               *** Restarting incremental Fock matrix formation ***
   24    -3371.3965797636365096    -1.71e-04  1.58e-05  2.47e-03  1.36e-03    18.8
   25    -3371.3966288319297746    -4.91e-05  2.58e-05  6.12e-03  1.28e-03    12.6
   26    -3371.3967584744905253    -1.30e-04  7.02e-05  1.79e-02  1.09e-03    13.2
   27    -3371.3969892470868217    -2.31e-04  5.36e-05  1.07e-02  1.69e-03    14.1
               *** Scaled step length from 0.391160 to 0.200000 ***
   28    -3371.3972180902756008    -2.29e-04  1.35e-04  2.93e-02  2.47e-03    13.7
               *** Scaled step length from 0.808163 to 0.200000 ***
   29    -3371.3978632409343845    -6.45e-04  1.34e-04  3.21e-02  4.98e-03    14.9
               *** Scaled step length from 0.223134 to 0.200000 ***
   30    -3371.3984730432366632    -6.10e-04  1.53e-04  3.44e-02  8.68e-03    14.7
               *** Scaled step length from 0.219945 to 0.200000 ***
   31    -3371.3997867995021807    -1.31e-03  1.43e-04  4.29e-02  7.92e-03    15.2
   32    -3371.4022973505270784    -2.51e-03  1.44e-04  2.19e-02  7.02e-03    14.9
   33    -3371.4042587482645104    -1.96e-03  1.61e-04  2.22e-02  4.40e-03    15.1
   34    -3371.4046986315752292    -4.40e-04  7.65e-05  2.75e-02  3.89e-03    15.5
   35    -3371.4052490190188109    -5.50e-04  5.86e-05  8.72e-03  2.81e-03    14.2
   36    -3371.4055427706271075    -2.94e-04  3.57e-05  7.00e-03  2.95e-03    14.2
               *** Scaled step length from 0.310028 to 0.200000 ***
   37    -3371.4060442874770160    -5.02e-04  1.25e-04  2.78e-02  2.79e-03    13.4
   38    -3371.4073393318058152    -1.30e-03  8.68e-05  1.99e-02  2.80e-03    14.5
   39    -3371.4076104334726551    -2.71e-04  4.43e-05  9.10e-03  2.30e-03    14.2
   40    -3371.4079780246738665    -3.68e-04  1.18e-05  3.04e-03  1.06e-03    13.7
   41    -3371.4080333305419117    -5.53e-05  1.42e-05  3.54e-03  8.34e-04    12.5
   42    -3371.4080598165701304    -2.65e-05  1.37e-05  4.10e-03  8.07e-04    12.2
   43    -3371.4080949411991242    -3.51e-05  1.66e-05  4.91e-03  5.59e-04    11.3
               *** Restarting incremental Fock matrix formation ***
   44    -3371.4081275854323394    -3.26e-05  2.07e-05  6.10e-03  8.57e-04    19.2
   45    -3371.4081589978868578    -3.14e-05  1.37e-05  3.73e-03  4.42e-04    12.1
   46    -3371.4081802734654048    -2.13e-05  1.20e-05  2.42e-03  4.41e-04    11.4
   47    -3371.4081935691538092    -1.33e-05  6.20e-06  1.59e-03  4.14e-04    11.6
   48    -3371.4082023527480487    -8.78e-06  1.32e-05  4.33e-03  2.74e-04    10.6
   49    -3371.4082120615794338    -9.71e-06  7.19e-06  1.77e-03  3.23e-04    11.5
   50    -3371.4082185614433911    -6.50e-06  6.53e-06  1.50e-03  2.51e-04    10.7
   51    -3371.4082236791300602    -5.12e-06  6.73e-06  1.62e-03  1.46e-04    10.5
   52    -3371.4082269608161369    -3.28e-06  7.18e-06  2.24e-03  1.45e-04    10.6
   53    -3371.4082287633473243    -1.80e-06  1.72e-06  3.37e-04  1.59e-04    10.5
   54    -3371.4082300145273621    -1.25e-06  1.73e-06  4.19e-04  1.20e-04     9.3
   55    -3371.4082307329890682    -7.18e-07  2.02e-06  5.05e-04  8.84e-05     9.2
   56    -3371.4082313115241050    -5.79e-07  2.20e-06  6.20e-04  7.29e-05     8.9
   57    -3371.4082317587244688    -4.47e-07  1.88e-06  4.94e-04  4.64e-05     8.7
   58    -3371.4082320292100121    -2.70e-07  1.47e-06  3.33e-04  4.30e-05     8.6
   59    -3371.4082322099120574    -1.81e-07  1.06e-06  2.74e-04  3.73e-05     8.4
   60    -3371.4082324827413686    -2.73e-07  1.03e-06  2.96e-04  4.46e-05     8.1
   61    -3371.4082326446996376    -1.62e-07  1.39e-06  4.34e-04  4.77e-05     8.2
   62    -3371.4082327741198242    -1.29e-07  1.73e-06  5.66e-04  4.49e-05     8.3
   63    -3371.4082329379125440    -1.64e-07  1.57e-06  4.92e-04  2.80e-05     8.4
               *** Restarting incremental Fock matrix formation ***
   64    -3371.4082330211567751    -8.32e-08  1.01e-06  1.92e-04  1.22e-05    19.1
   65    -3371.4082329886359730     3.25e-08  3.17e-07  5.62e-05  8.46e-06     8.3
   66    -3371.4082330172714137    -2.86e-08  2.75e-07  5.32e-05  4.47e-06     7.0
   67    -3371.4082329748634947     4.24e-08  1.53e-07  2.43e-05  1.72e-06     6.6
                  *** Gradient check signals convergence ***

               *****************************************************
               *                     SUCCESS                       *
               *           SCF CONVERGED AFTER  67 CYCLES          *
               *****************************************************

 done (   25.841 sec)
Old exchange energy                            :    -75.640560980 Eh
New exchange energy                            :    -75.640549855 Eh
Exchange energy change after final integration :      0.000011125 Eh
Total energy after final integration           :  -3371.408221850 Eh
             **** ENERGY FILE WAS UPDATED (GIQMUO-S6.en.tmp) ****

----------------
TOTAL SCF ENERGY
----------------

Total Energy       :      -3371.40822184959188 Eh          -91740.68172 eV

Components:
Nuclear Repulsion  :       4754.67938606819280 Eh          129381.40372 eV
Electronic Energy  :      -8126.08761904305629 Eh         -221122.08574 eV
One Electron Energy:     -14134.16120153128577 Eh         -384610.07949 eV
Two Electron Energy:       6008.07358248822948 Eh          163487.99375 eV

Virial components:
Potential Energy   :      -6737.45165551648461 Eh         -183335.38014 eV
Kinetic Energy     :       3366.04343366689318 Eh           91594.69841 eV
Virial Ratio       :          2.00159379648196

DFT components:
N(Alpha)           :      141.000008818116 electrons
N(Beta)            :      138.000008782408 electrons
N(Total)           :      279.000017600524 electrons
E(X)               :     -226.677073195024 Eh       
E(C)               :       -9.928073478686 Eh       
E(XC)              :     -236.605146673710 Eh       

---------------
SCF CONVERGENCE
---------------

  Last Energy change         ...   -4.2408e-08  Tolerance :   1.0000e-08
  Last MAX-Density change    ...    2.4286e-05  Tolerance :   1.0000e-07
  Last RMS-Density change    ...    1.5263e-07  Tolerance :   5.0000e-09
  Last DIIS Error            ...    2.6982e-03  Tolerance :   5.0000e-07
  Last Orbital Gradient      ...    1.7217e-06  Tolerance :   1.0000e-05
  Last Orbital Rotation      ...    3.6017e-05  Tolerance :   1.0000e-05


----------------------
UHF SPIN CONTAMINATION
----------------------

Warning: in a DFT calculation there is little theoretical justification to 
         calculate <S**2> as in Hartree-Fock theory. We will do it anyways
         but you should keep in mind that the values have only limited relevance

Expectation value of <S**2>     :     4.343255
Ideal value S*(S+1) for S=1.5   :     3.750000
Deviation                       :     0.593255

----------------
ORBITAL ENERGIES
----------------
                 SPIN UP ORBITALS
  NO   OCC          E(Eh)            E(eV) 
   0   1.0000    -235.756295     -6415.2549 
   1   1.0000     -27.431400      -746.4463 
   2   1.0000     -24.819590      -675.3754 
   3   1.0000     -24.818984      -675.3589 
   4   1.0000     -24.818257      -675.3391 
   5   1.0000     -24.815336      -675.2596 
   6   1.0000     -24.814377      -675.2335 
   7   1.0000     -24.814173      -675.2280 
   8   1.0000     -24.809851      -675.1104 
   9   1.0000     -24.808273      -675.0674 
  10   1.0000     -24.807257      -675.0398 
  11   1.0000     -24.801039      -674.8706 
  12   1.0000     -24.798350      -674.7974 
  13   1.0000     -24.798235      -674.7943 
  14   1.0000     -23.481794      -638.9721 
  15   1.0000     -23.466912      -638.5671 
  16   1.0000     -23.461676      -638.4247 
  17   1.0000     -19.264763      -524.2208 
  18   1.0000     -19.233271      -523.3639 
  19   1.0000     -19.231599      -523.3184 
  20   1.0000     -19.230422      -523.2864 
  21   1.0000     -19.228139      -523.2243 
  22   1.0000     -14.441458      -392.9721 
  23   1.0000     -14.416251      -392.2861 
  24   1.0000     -10.476051      -285.0678 
  25   1.0000     -10.469196      -284.8813 
  26   1.0000     -10.465682      -284.7857 
  27   1.0000     -10.459317      -284.6125 
  28   1.0000     -10.338179      -281.3162 
  29   1.0000     -10.334622      -281.2194 
  30   1.0000     -10.333993      -281.2022 
  31   1.0000     -10.332584      -281.1639 
  32   1.0000     -10.302228      -280.3379 
  33   1.0000     -10.287916      -279.9484 
  34   1.0000     -10.282041      -279.7886 
  35   1.0000     -10.248154      -278.8664 
  36   1.0000     -10.227747      -278.3111 
  37   1.0000     -10.217323      -278.0275 
  38   1.0000      -3.275040       -89.1184 
  39   1.0000      -2.159773       -58.7704 
  40   1.0000      -2.114776       -57.5460 
  41   1.0000      -2.101940       -57.1967 
  42   1.0000      -1.399442       -38.0808 
  43   1.0000      -1.398292       -38.0495 
  44   1.0000      -1.394857       -37.9560 
  45   1.0000      -1.383876       -37.6572 
  46   1.0000      -1.296409       -35.2771 
  47   1.0000      -1.293484       -35.1975 
  48   1.0000      -1.289244       -35.0821 
  49   1.0000      -1.286272       -35.0012 
  50   1.0000      -1.277469       -34.7617 
  51   1.0000      -1.276883       -34.7457 
  52   1.0000      -1.273339       -34.6493 
  53   1.0000      -1.272991       -34.6399 
  54   1.0000      -1.138635       -30.9838 
  55   1.0000      -1.109274       -30.1849 
  56   1.0000      -1.106618       -30.1126 
  57   1.0000      -1.095301       -29.8047 
  58   1.0000      -1.092809       -29.7368 
  59   1.0000      -1.060109       -28.8470 
  60   1.0000      -0.959579       -26.1115 
  61   1.0000      -0.873210       -23.7613 
  62   1.0000      -0.850415       -23.1410 
  63   1.0000      -0.849027       -23.1032 
  64   1.0000      -0.787569       -21.4308 
  65   1.0000      -0.785808       -21.3829 
  66   1.0000      -0.752575       -20.4786 
  67   1.0000      -0.751099       -20.4384 
  68   1.0000      -0.742763       -20.2116 
  69   1.0000      -0.736060       -20.0292 
  70   1.0000      -0.698888       -19.0177 
  71   1.0000      -0.698672       -19.0118 
  72   1.0000      -0.669254       -18.2113 
  73   1.0000      -0.666619       -18.1396 
  74   1.0000      -0.644817       -17.5464 
  75   1.0000      -0.642021       -17.4703 
  76   1.0000      -0.641765       -17.4633 
  77   1.0000      -0.638896       -17.3852 
  78   1.0000      -0.638055       -17.3624 
  79   1.0000      -0.636823       -17.3288 
  80   1.0000      -0.636710       -17.3258 
  81   1.0000      -0.634705       -17.2712 
  82   1.0000      -0.633820       -17.2471 
  83   1.0000      -0.633285       -17.2326 
  84   1.0000      -0.585138       -15.9224 
  85   1.0000      -0.579778       -15.7766 
  86   1.0000      -0.576392       -15.6844 
  87   1.0000      -0.574049       -15.6207 
  88   1.0000      -0.559645       -15.2287 
  89   1.0000      -0.555602       -15.1187 
  90   1.0000      -0.532224       -14.4825 
  91   1.0000      -0.528491       -14.3810 
  92   1.0000      -0.524686       -14.2774 
  93   1.0000      -0.513680       -13.9779 
  94   1.0000      -0.512383       -13.9426 
  95   1.0000      -0.511919       -13.9300 
  96   1.0000      -0.508948       -13.8492 
  97   1.0000      -0.508054       -13.8248 
  98   1.0000      -0.506893       -13.7933 
  99   1.0000      -0.505567       -13.7572 
 100   1.0000      -0.504271       -13.7219 
 101   1.0000      -0.501566       -13.6483 
 102   1.0000      -0.494981       -13.4691 
 103   1.0000      -0.487249       -13.2587 
 104   1.0000      -0.484417       -13.1817 
 105   1.0000      -0.484157       -13.1746 
 106   1.0000      -0.477358       -12.9896 
 107   1.0000      -0.475912       -12.9502 
 108   1.0000      -0.468863       -12.7584 
 109   1.0000      -0.467719       -12.7273 
 110   1.0000      -0.464775       -12.6472 
 111   1.0000      -0.463657       -12.6168 
 112   1.0000      -0.458282       -12.4705 
 113   1.0000      -0.457852       -12.4588 
 114   1.0000      -0.445666       -12.1272 
 115   1.0000      -0.442819       -12.0497 
 116   1.0000      -0.441433       -12.0120 
 117   1.0000      -0.438897       -11.9430 
 118   1.0000      -0.436233       -11.8705 
 119   1.0000      -0.435473       -11.8498 
 120   1.0000      -0.435149       -11.8410 
 121   1.0000      -0.431531       -11.7426 
 122   1.0000      -0.430769       -11.7218 
 123   1.0000      -0.423149       -11.5145 
 124   1.0000      -0.422194       -11.4885 
 125   1.0000      -0.415627       -11.3098 
 126   1.0000      -0.403250       -10.9730 
 127   1.0000      -0.392077       -10.6690 
 128   1.0000      -0.372186       -10.1277 
 129   1.0000      -0.371801       -10.1172 
 130   1.0000      -0.340919        -9.2769 
 131   1.0000      -0.337804        -9.1921 
 132   1.0000      -0.334275        -9.0961 
 133   1.0000      -0.320760        -8.7283 
 134   1.0000      -0.315330        -8.5806 
 135   1.0000      -0.308343        -8.3904 
 136   1.0000      -0.303578        -8.2608 
 137   1.0000      -0.283765        -7.7216 
 138   1.0000      -0.279802        -7.6138 
 139   1.0000      -0.268013        -7.2930 
 140   1.0000      -0.243530        -6.6268 
 141   0.0000      -0.083783        -2.2799 
 142   0.0000      -0.082552        -2.2464 
 143   0.0000      -0.075978        -2.0675 
 144   0.0000      -0.060034        -1.6336 
 145   0.0000      -0.058435        -1.5901 
 146   0.0000      -0.001864        -0.0507 
 147   0.0000       0.046090         1.2542 
 148   0.0000       0.053402         1.4531 
 149   0.0000       0.054609         1.4860 
 150   0.0000       0.072292         1.9672 
 151   0.0000       0.079072         2.1517 

                 SPIN DOWN ORBITALS
  NO   OCC          E(Eh)            E(eV) 
   0   1.0000    -235.755613     -6415.2364 
   1   1.0000     -27.376504      -744.9525 
[...]
 80:    974.43   0.001603    8.10  0.000513  ( 0.003500  0.003606 -0.022091)
 81:    999.73   0.000029    0.15  0.000009  (-0.000519  0.000310 -0.002959)
 82:   1020.79   0.000117    0.59  0.000036  ( 0.000299 -0.000878  0.005908)
 83:   1037.69   0.002111   10.67  0.000635  (-0.013178 -0.021471  0.000098)
 84:   1041.84   0.000001    0.01  0.000000  ( 0.000162 -0.000436  0.000400)
 85:   1092.13   0.000546    2.76  0.000156  (-0.004884  0.011312 -0.002041)
 86:   1107.81   0.001534    7.75  0.000432  ( 0.020586 -0.002593 -0.001298)
 87:   1136.17   0.014678   74.18  0.004032  (-0.021236  0.001949 -0.059806)
 88:   1146.76   0.010479   52.96  0.002852  (-0.011142  0.050301  0.014049)
 89:   1147.70   0.006890   34.82  0.001873  (-0.002289 -0.013186  0.041161)
 90:   1161.30   0.024256  122.58  0.006518  (-0.019295  0.078001  0.007843)
 91:   1176.57   0.006776   34.24  0.001797  (-0.040369 -0.001246  0.012882)
 92:   1178.50   0.023421  118.36  0.006202  ( 0.075869  0.020540 -0.004881)
 93:   1181.96   0.033779  170.70  0.008918  ( 0.085897  0.038981 -0.004519)
 94:   1194.13   0.057883  292.52  0.015127  (-0.115839 -0.040185  0.009644)
 95:   1197.81   0.073469  371.28  0.019141  ( 0.130911  0.044172 -0.007202)
 96:   1216.06   0.003576   18.07  0.000918  (-0.006274 -0.020586  0.021317)
 97:   1218.30   0.014268   72.10  0.003655  ( 0.026509 -0.053609 -0.008834)
 98:   1226.84   0.041879  211.64  0.010653  (-0.038726  0.094503  0.014901)
 99:   1239.59   0.008586   43.39  0.002161  ( 0.033698  0.004780 -0.031669)
100:   1241.07   0.014609   73.83  0.003673  ( 0.022285 -0.013547  0.054710)
101:   1276.57   0.016602   83.90  0.004058  ( 0.018111 -0.059902 -0.011923)
102:   1278.73   0.172403  871.26  0.042074  ( 0.060673 -0.194230 -0.025831)
103:   1287.13   0.011442   57.82  0.002774  (-0.017073 -0.006051 -0.049456)
104:   1292.52   0.672872  3400.42  0.162457  ( 0.047210 -0.037576  0.398517)
105:   1385.99   0.000787    3.98  0.000177  ( 0.012001  0.003457 -0.004607)
106:   1394.29   0.000894    4.52  0.000200  ( 0.008042 -0.011367 -0.002492)
107:   1458.27   0.009851   49.78  0.002108  (-0.015596 -0.043181 -0.000570)
108:   1468.31   0.005362   27.09  0.001139  (-0.007222  0.032297  0.006649)
109:   1502.03   0.021107  106.67  0.004385  (-0.008701  0.008853 -0.065047)
110:   1506.35   0.034041  172.03  0.007052  ( 0.019935 -0.080285 -0.014460)
111:   1509.73   0.003003   15.18  0.000621  (-0.020193  0.014286 -0.002985)
112:   1550.80   0.007195   36.36  0.001448  ( 0.010194 -0.036467 -0.003746)
113:   1575.34   0.020363  102.91  0.004034  ( 0.017461 -0.060693 -0.006728)
114:   1591.18   0.000486    2.46  0.000095  ( 0.000795  0.003128  0.009219)
115:   1621.82   0.014746   74.52  0.002837  ( 0.045369  0.011251  0.025541)
116:   1636.90   0.009574   48.38  0.001825  ( 0.024652 -0.034425 -0.005687)
117:   1658.34   0.021059  106.42  0.003963  (-0.060577 -0.016175  0.005627)
118:   3176.96   0.002405   12.15  0.000236  (-0.013291 -0.007662  0.000924)
119:   3195.91   0.000117    0.59  0.000011  ( 0.000891  0.003217  0.000521)
120:   3198.63   0.000033    0.17  0.000003  (-0.000467 -0.001616  0.000624)
121:   3230.74   0.000407    2.06  0.000039  ( 0.003844  0.004942  0.000349)
122:   3270.50   0.000473    2.39  0.000045  (-0.001065  0.000456 -0.006618)
123:   3277.78   0.000812    4.10  0.000077  (-0.000253  0.001094 -0.008721)
124:   3830.64   0.005048   25.51  0.000411  ( 0.018181  0.005285  0.007262)
125:   3935.09   0.015237   77.00  0.001208  ( 0.010592 -0.032888 -0.003815)

* The epsilon (eps) is given for a Dirac delta lineshape.
** The dipole moment derivative (T) already includes vibrational overlap.

The first frequency considered to be a vibration is 6
The total number of vibrations considered is 120


--------------------------
THERMOCHEMISTRY AT 298.15K
--------------------------

Temperature         ...   298.15 K
Pressure            ...     1.00 atm
Total Mass          ...   567.14 AMU
Quasi RRHO          ...     True
Cut-Off Frequency   ...     1.00 cm^-1

Throughout the following assumptions are being made:
  (1) The electronic state is orbitally nondegenerate
      but the spin degeneracy is treated
  (2) There are no thermally accessible electronically excited states
  (3) Hindered rotations indicated by low frequency modes are not
      treated as such but are treated as vibrations and this may
      cause some error
  (4) All equations used are the standard statistical mechanics
      equations for an ideal gas
  (5) All vibrations are strictly harmonic

freq.      17.32  E(vib)   ...       0.57 
freq.      20.20  E(vib)   ...       0.56 
freq.      20.79  E(vib)   ...       0.56 
freq.      23.42  E(vib)   ...       0.56 
freq.      24.02  E(vib)   ...       0.56 
freq.      25.66  E(vib)   ...       0.56 
freq.      27.70  E(vib)   ...       0.55 
freq.      28.03  E(vib)   ...       0.55 
freq.      29.26  E(vib)   ...       0.55 
freq.      44.54  E(vib)   ...       0.53 
freq.      57.72  E(vib)   ...       0.51 
freq.      60.23  E(vib)   ...       0.51 
freq.      88.48  E(vib)   ...       0.47 
freq.      89.18  E(vib)   ...       0.47 
freq.     104.44  E(vib)   ...       0.46 
freq.     108.60  E(vib)   ...       0.45 
freq.     110.73  E(vib)   ...       0.45 
freq.     116.08  E(vib)   ...       0.44 
freq.     120.31  E(vib)   ...       0.44 
freq.     132.87  E(vib)   ...       0.42 
freq.     152.67  E(vib)   ...       0.40 
freq.     163.12  E(vib)   ...       0.39 
freq.     179.28  E(vib)   ...       0.37 
freq.     182.10  E(vib)   ...       0.37 
freq.     192.41  E(vib)   ...       0.36 
freq.     192.94  E(vib)   ...       0.36 
freq.     231.47  E(vib)   ...       0.32 
freq.     249.13  E(vib)   ...       0.31 
freq.     256.74  E(vib)   ...       0.30 
freq.     257.23  E(vib)   ...       0.30 
freq.     261.46  E(vib)   ...       0.30 
freq.     272.58  E(vib)   ...       0.29 
freq.     276.19  E(vib)   ...       0.28 
freq.     287.02  E(vib)   ...       0.27 
freq.     297.31  E(vib)   ...       0.27 
freq.     308.51  E(vib)   ...       0.26 
freq.     335.36  E(vib)   ...       0.24 
freq.     356.10  E(vib)   ...       0.22 
freq.     361.05  E(vib)   ...       0.22 
freq.     368.23  E(vib)   ...       0.21 
freq.     370.23  E(vib)   ...       0.21 
freq.     386.45  E(vib)   ...       0.20 
freq.     415.90  E(vib)   ...       0.18 
freq.     419.09  E(vib)   ...       0.18 
freq.     433.04  E(vib)   ...       0.17 
freq.     495.62  E(vib)   ...       0.14 
freq.     502.72  E(vib)   ...       0.14 
freq.     512.29  E(vib)   ...       0.14 
freq.     517.91  E(vib)   ...       0.13 
freq.     535.70  E(vib)   ...       0.12 
freq.     536.65  E(vib)   ...       0.12 
freq.     541.38  E(vib)   ...       0.12 
freq.     560.60  E(vib)   ...       0.11 
freq.     585.93  E(vib)   ...       0.11 
freq.     605.28  E(vib)   ...       0.10 
freq.     617.19  E(vib)   ...       0.09 
freq.     625.89  E(vib)   ...       0.09 
freq.     643.70  E(vib)   ...       0.09 
freq.     682.33  E(vib)   ...       0.08 
freq.     699.04  E(vib)   ...       0.07 
freq.     701.19  E(vib)   ...       0.07 
freq.     702.88  E(vib)   ...       0.07 
freq.     731.53  E(vib)   ...       0.06 
freq.     735.93  E(vib)   ...       0.06 
freq.     749.97  E(vib)   ...       0.06 
freq.     756.82  E(vib)   ...       0.06 
freq.     759.39  E(vib)   ...       0.06 
freq.     777.17  E(vib)   ...       0.05 
freq.     835.63  E(vib)   ...       0.04 
freq.     837.63  E(vib)   ...       0.04 
freq.     838.98  E(vib)   ...       0.04 
freq.     849.99  E(vib)   ...       0.04 
freq.     853.57  E(vib)   ...       0.04 
freq.     949.40  E(vib)   ...       0.03 
freq.     974.43  E(vib)   ...       0.03 
freq.     999.73  E(vib)   ...       0.02 
freq.    1020.79  E(vib)   ...       0.02 
freq.    1037.69  E(vib)   ...       0.02 
freq.    1041.84  E(vib)   ...       0.02 
freq.    1092.13  E(vib)   ...       0.02 
freq.    1107.81  E(vib)   ...       0.02 
freq.    1136.17  E(vib)   ...       0.01 
freq.    1146.76  E(vib)   ...       0.01 
freq.    1147.70  E(vib)   ...       0.01 
freq.    1161.30  E(vib)   ...       0.01 
freq.    1176.57  E(vib)   ...       0.01 
freq.    1178.50  E(vib)   ...       0.01 
freq.    1181.96  E(vib)   ...       0.01 
freq.    1194.13  E(vib)   ...       0.01 
freq.    1197.81  E(vib)   ...       0.01 
freq.    1216.06  E(vib)   ...       0.01 
freq.    1218.30  E(vib)   ...       0.01 
freq.    1226.84  E(vib)   ...       0.01 
freq.    1239.59  E(vib)   ...       0.01 
freq.    1241.07  E(vib)   ...       0.01 
freq.    1276.57  E(vib)   ...       0.01 
freq.    1278.73  E(vib)   ...       0.01 
freq.    1287.13  E(vib)   ...       0.01 
freq.    1292.52  E(vib)   ...       0.01 
freq.    1385.99  E(vib)   ...       0.00 
freq.    1394.29  E(vib)   ...       0.00 
freq.    1458.27  E(vib)   ...       0.00 
freq.    1468.31  E(vib)   ...       0.00 
freq.    1502.03  E(vib)   ...       0.00 
freq.    1506.35  E(vib)   ...       0.00 
freq.    1509.73  E(vib)   ...       0.00 
freq.    1550.80  E(vib)   ...       0.00 
freq.    1575.34  E(vib)   ...       0.00 
freq.    1591.18  E(vib)   ...       0.00 
freq.    1621.82  E(vib)   ...       0.00 
freq.    1636.90  E(vib)   ...       0.00 
freq.    1658.34  E(vib)   ...       0.00 
freq.    3176.96  E(vib)   ...       0.00 
freq.    3195.91  E(vib)   ...       0.00 
freq.    3198.63  E(vib)   ...       0.00 
freq.    3230.74  E(vib)   ...       0.00 
freq.    3270.50  E(vib)   ...       0.00 
freq.    3277.78  E(vib)   ...       0.00 
freq.    3830.64  E(vib)   ...       0.00 
freq.    3935.09  E(vib)   ...       0.00 

------------
INNER ENERGY
------------

The inner energy is: U= E(el) + E(ZPE) + E(vib) + E(rot) + E(trans)
    E(el)   - is the total energy from the electronic structure calculation
              = E(kin-el) + E(nuc-el) + E(el-el) + E(nuc-nuc)
    E(ZPE)  - the the zero temperature vibrational energy from the frequency calculation
    E(vib)  - the the finite temperature correction to E(ZPE) due to population
              of excited vibrational states
    E(rot)  - is the rotational thermal energy
    E(trans)- is the translational thermal energy

Summary of contributions to the inner energy U:
Electronic energy                ...  -3371.66017494 Eh
Zero point energy                ...      0.23748816 Eh     149.03 kcal/mol
Thermal vibrational correction   ...      0.03176523 Eh      19.93 kcal/mol
Thermal rotational correction    ...      0.00141627 Eh       0.89 kcal/mol
Thermal translational correction ...      0.00141627 Eh       0.89 kcal/mol
-----------------------------------------------------------------------
Total thermal energy                  -3371.38808900 Eh


Summary of corrections to the electronic energy:
(perhaps to be used in another calculation)
Total thermal correction                  0.03459778 Eh      21.71 kcal/mol
Non-thermal (ZPE) correction              0.23748816 Eh     149.03 kcal/mol
-----------------------------------------------------------------------
Total correction                          0.27208594 Eh     170.74 kcal/mol


--------
ENTHALPY
--------

The enthalpy is H = U + kB*T
                kB is Boltzmann's constant
Total thermal energy              ...  -3371.38808900 Eh 
Thermal Enthalpy correction       ...      0.00094421 Eh       0.59 kcal/mol
-----------------------------------------------------------------------
Total Enthalpy                    ...  -3371.38714479 Eh


Note: Only C1 symmetry has been detected, increase convergence thresholds 
      if your molecule has a higher symmetry. Symmetry factor of 1.0 is   
      used for the rotational entropy correction. 
 

Note: Rotational entropy computed according to Herzberg 
Infrared and Raman Spectra, Chapter V,1, Van Nostrand Reinhold, 1945 
Point Group:  C1, Symmetry Number:   1  
Rotational constants in cm-1:     0.004225     0.002948     0.002435 

Vibrational entropy computed according to the QRRHO of S. Grimme
Chem.Eur.J. 2012 18 9955 using a reference frequency of 100.0 cm-1


-------
ENTROPY
-------

The entropy contributions are T*S = T*(S(el)+S(vib)+S(rot)+S(trans))
     S(el)   - electronic entropy
     S(vib)  - vibrational entropy
     S(rot)  - rotational entropy
     S(trans)- translational entropy
The entropies will be listed as multiplied by the temperature to get
units of energy

Electronic entropy                ...      0.00130891 Eh      0.82 kcal/mol
Vibrational entropy               ...      0.05965209 Eh     37.43 kcal/mol
Rotational entropy                ...      0.01768313 Eh     11.10 kcal/mol
Translational entropy             ...      0.02132910 Eh     13.38 kcal/mol
-----------------------------------------------------------------------
Final entropy term                ...      0.09997324 Eh     62.73 kcal/mol

In case the symmetry of your molecule has not been determined correctly
or in case you have a reason to use a different symmetry number we print 
out the resulting rotational entropy values for sn=1,12:

 non-linear molecules -----------------------------------
|  sn= 1 | S(rot)=       0.01768313 Eh     11.10 kcal/mol|
|  sn= 2 | S(rot)=       0.01702868 Eh     10.69 kcal/mol|
|  sn= 3 | S(rot)=       0.01664585 Eh     10.45 kcal/mol|
|  sn= 4 | S(rot)=       0.01637422 Eh     10.27 kcal/mol|
|  sn= 5 | S(rot)=       0.01616353 Eh     10.14 kcal/mol|
|  sn= 6 | S(rot)=       0.01599139 Eh     10.03 kcal/mol|
|  sn= 7 | S(rot)=       0.01584584 Eh      9.94 kcal/mol|
|  sn= 8 | S(rot)=       0.01571977 Eh      9.86 kcal/mol|
|  sn= 9 | S(rot)=       0.01560856 Eh      9.79 kcal/mol|
|  sn=10 | S(rot)=       0.01550908 Eh      9.73 kcal/mol|
|  sn=11 | S(rot)=       0.01541909 Eh      9.68 kcal/mol|
|  sn=12 | S(rot)=       0.01533693 Eh      9.62 kcal/mol|
 linear molecules ---------------------------------------
|  Dinfh | S(rot)=       0.01100764 Eh      6.91 kcal/mol|
|  Cinfv | S(rot)=       0.01166209 Eh      7.32 kcal/mol|
 --------------------------------------------------------


-------------------
GIBBS FREE ENERGY
-------------------

The Gibbs free energy is G = H - T*S

Total enthalpy                    ...  -3371.38714479 Eh 
Total entropy correction          ...     -0.09997324 Eh    -62.73 kcal/mol
-----------------------------------------------------------------------
Final Gibbs free energy         ...  -3371.48711803 Eh

For completeness - the Gibbs free energy minus the electronic energy
G-E(el)                           ...      0.17305691 Eh    108.59 kcal/mol


Maximum memory used throughout the entire PROP-calculation: 1315.9 MB

--------------------------------
SUGGESTED CITATIONS FOR THIS RUN
--------------------------------

Below you find a list of papers that are relevant to this ORCA run
We neither can nor want to force you to cite these papers, but we appreciate if you do
You receive ORCA, which is the product of decades of hard work by many enthusiastic individuals, for free
The only thing we kindly ask in return is that you cite our papers,
We deeply appreciate it, if you show your appreciation for ORCA by not just citing the generic ORCA reference.

Please note that relegating all ORCA citations to the supporting information does *not* help us.
SI sections are not indexed - citations you put there will not count into any citation statistics
But we need these citations in order to attract the funding resources that allow us to do what we are doing

Therefore, if you are a happy ORCA user, please consider citing a few of the papers listed below in the main body of your paper

In addition to the list printed below, the program has created the file GIQMUO-S6.bibtex that contains the list in bibtex format
You can import this file easily into all common literature databanks and citation aid programs


List of essential papers. We consider these as the minimum necessary citations

  1. Neese,F.
     Software update: the ORCA program system, version 5.0
     WIRES Comput. Molec. Sci., 2022 12(1)e1606
     doi.org/10.1002/wcms.1606

List of papers to cite with high priority. The work reported in these papers was absolutely
necessary for this run to complete.
Our perspective: the developers of density functionals and basis sets usually get cited in chemistry papers
Good! But without the algorithms to do something with them, the functionals or basis sets would not do anything.
Hence, in our opinion, the algorithm design and method developments papers are equally worthy of getting cited

  1. Neese,F.
     An improvement of the resolution of the identity approximation for the formation of the Coulomb matrix
     J. Comp. Chem., 2003 24(14)1740-1747
     doi.org/10.1002/jcc.10318
  2. Neese,F.; Wennmohs,F.; Hansen,A.; Becker,U.
     Efficient, approximate and parallel Hartree-Fock and hybrid DFT calculations. A 'chain-of-spheres' algorithm for the Hartree-Fock exchange
     Chem. Phys., 2009 356(1-3)98-109
     doi.org/10.1016/j.chemphys.2008.10.036
  3. Bykov,D.; Petrenko,T.; Izsak,R.; Kossmann,S.; Becker,U.; Valeev,E.; Neese,F.
     Efficient implementation of the analytic second derivatives of Hartree-Fock and hybrid DFT energies: a detailed analysis of different approximations
     Molec. Phys., 2015 113 1961-1977
     doi.org/10.1080/00268976.2015.1025114
  4. Helmich-Paris,B.; de Souza,B.; Neese,F.; Izsák,R.
     An improved chain of spheres for exchange algorithm
     J. Chem. Phys., 2021 155 104109
     doi.org/doi: 10.1063/5.0058766.
  5. Neese,F.
     The SHARK Integral Generation and Digestion System
     J. Comp. Chem., 2022  1-16
     doi.org/10.1002/jcc.26942

List of suggested additional citations. These are papers that are important in the 'surrounding' of 
of this run, or papers that preceded the highly important papers. If you like your results we are grateful for a citation.

  1. Izsak,R.; Neese,F.
     An overlap fitted chain of spheres exchange method
     J. Chem. Phys., 2011 135 144105
     doi.org/10.1063/1.3646921
  2. Izsak,R.; Hansen,A.; Neese,F.
     The resolution of identity and chain of spheres approximations for the LPNO-CCSD singles Fock term
     Molec. Phys., 2012 110 2413-2417
     doi.org/10.1080/00268976.2012.687466
  3. Neese,F.
     The ORCA program system
     WIRES Comput. Molec. Sci., 2012 2(1)73-78
     doi.org/10.1002/wcms.81
  4. Izsak,R.; Neese,F.; Klopper,W.
     Robust fitting techniques in the chain of spheres approximation to the Fock exchange: The role of the complementary space
     J. Chem. Phys., 2013 139 
     doi.org/10.1063/1.4819264
  5. Neese,F.
     Software update: the ORCA program system, version 4.0
     WIRES Comput. Molec. Sci., 2018 8(1)1-6
     doi.org/10.1002/wcms.1327
  6. Neese,F.; Wennmohs,F.; Becker,U.; Riplinger,C.
     The ORCA quantum chemistry program package
     J. Chem. Phys., 2020 152 Art. No. L224108
     doi.org/10.1063/5.0004608

List of optional additional citations

  1. Neese,F.
     Approximate second-order SCF convergence for spin unrestricted wavefunctions
     Chem. Phys. Lett., 2000 325(1-3)93-98
     doi.org/10.1016/s0009-2614(00)00662-x

Timings for individual modules:

Sum of individual times          ...    16363.066 sec (= 272.718 min)
Startup calculation              ...      261.873 sec (=   4.365 min)   1.6 %
SCF iterations                   ...     5907.477 sec (=  98.458 min)  36.1 %
Property integrals               ...     2750.532 sec (=  45.842 min)  16.8 %
SCF Response                     ...     5574.720 sec (=  92.912 min)  34.1 %
Property calculations            ...      797.344 sec (=  13.289 min)   4.9 %
SCF Gradient evaluation          ...     1070.654 sec (=  17.844 min)   6.5 %
Geometry relaxation              ...        0.466 sec (=   0.008 min)   0.0 %
                             ****ORCA TERMINATED NORMALLY****
TOTAL RUN TIME: 0 days 4 hours 33 minutes 19 seconds 259 msec
