
                                 *****************
                                 * O   R   C   A *
                                 *****************

                                            #,                                       
                                            ###                                      
                                            ####                                     
                                            #####                                    
                                            ######                                   
                                           ########,                                 
                                     ,,################,,,,,                         
                               ,,#################################,,                 
                          ,,##########################################,,             
                       ,#########################################, ''#####,          
                    ,#############################################,,   '####,        
                  ,##################################################,,,,####,       
                ,###########''''           ''''###############################       
              ,#####''   ,,,,##########,,,,          '''####'''          '####       
            ,##' ,,,,###########################,,,                        '##       
           ' ,,###''''                  '''############,,,                           
         ,,##''                                '''############,,,,        ,,,,,,###''
      ,#''                                            '''#######################'''  
     '                                                          ''''####''''         
             ,#######,   #######,   ,#######,      ##                                
            ,#'     '#,  ##    ##  ,#'     '#,    #''#        ,####,   ,####,        
            ##       ##  ##   ,#'  ##            #'  '#       #'       #'  '#        
            ##       ##  #######   ##           ,######,      #####,   #    #        
            '#,     ,#'  ##    ##  '#,     ,#' ,#      #,     #,   #   #,  ,#        
             '#######'   ##     ##  '#######'  #'      '#     '####' # '####'        



                #########################################################
                #                        -***-                          #
                #          Department of theory and spectroscopy        #
                #                                                       #
                #                      Frank Neese                      #
                #                                                       #
                #     Directorship, Architecture, Infrastructure        #
                #                    SHARK, DRIVERS                     #
                #        Core code/Algorithms in most modules           #
                #                                                       #
                #        Max Planck Institute fuer Kohlenforschung      #
                #                Kaiser Wilhelm Platz 1                 #
                #                 D-45470 Muelheim/Ruhr                 #
                #                      Germany                          #
                #                                                       #
                #                  All rights reserved                  #
                #                        -***-                          #
                #########################################################


                         Program Version 6.0.1  -  RELEASE   -


 With contributions from (in alphabetic order):
[Max-Planck-Institut fuer Kohlenforschung]                               
  Daniel Aravena         : Magnetic Suceptibility                        
  Michael Atanasov       : Ab Initio Ligand Field Theory (pilot matlab implementation)
  Alexander A. Auer      : GIAO ZORA, VPT2 properties, NMR spectrum      
  Ute Becker             : All parallelization in ORCA, NUMFREQ, NUMCALC 
  Giovanni Bistoni       : ED, misc. LED, open-shell LED, HFLD           
  Martin Brehm           : Molecular dynamics                            
  Dmytro Bykov           : pre 5.0 version of the SCF Hessian            
  Marcos Casanova-Páez   : Triplet and SCS-CIS(D). UHF-(DLPNO)-IP/EA/STEOM-CCSD. UHF-CVS-IP/STEOM-CCSD   
  Vijay G. Chilkuri      : MRCI spin determinant printing, contributions to CSF-ICE 
  Pauline Colinet        : FMM embedding                                 
  Dipayan Datta          : RHF DLPNO-CCSD density                        
  Achintya Kumar Dutta   : EOM-CC, STEOM-CC                              
  Nicolas Foglia         : Exact transition moments, OPA infrastructure, MCD improvements    
  Dmitry Ganyushin       : Spin-Orbit,Spin-Spin,Magnetic field MRCI      
  Miquel Garcia-Rates    : C-PCM and meta-GGA Hessian, CCSD/C-PCM, Gaussian charge scheme 
  Tiago L. C. Gouveia    : GS-ROHF, GS-ROCIS                             
  Yang Guo               : DLPNO-NEVPT2, F12-NEVPT2, CIM, IAO-localization        
  Andreas Hansen         : Spin unrestricted coupled pair/coupled cluster methods 
  Ingolf Harden          : AUTO-CI MPn and infrastructure                
  Benjamin Helmich-Paris : MC-RPA, TRAH-(SCF,CASSCF), AVAS, COSX integrals, SCF dyn. polar. 
  Lee Huntington         : MR-EOM, pCC                                   
  Robert Izsak           : Overlap fitted RIJCOSX, COSX-SCS-MP3, EOM     
  Riya Kayal             : Wick's Theorem for AUTO-CI, AUTO-CI UHF-CCSDT 
  Emily Kempfer          : AUTO-CI, RHF CISDT and CCSDT                  
  Christian Kollmar      : KDIIS, OOCD, Brueckner-CCSD(T), CCSD density, CASPT2, CASPT2-K, improved NEVPT2 
  Axel Koslowski         : Symmetry handling                             
  Simone Kossmann        : meta-GGA functionals, TD-DFT gradient, OOMP2, (MP2 Hessian; deprecated post 5.0) 
  Lucas Lang             : DCDCAS                                        
  Marvin Lechner         : AUTO-CI (C++ implementation), FIC-MRCC        
  Spencer Leger          : CASSCF response                               
  Dagmar Lenk            : GEPOL surface, SMD, ORCA-2-JSON               
  Dimitrios Liakos       : Extrapolation schemes; Compound Job, initial MDCI parallelization 
  Dimitrios Manganas     : Further ROCIS development; embedding schemes. LFT, Crystal Embedding 
  Dimitrios Pantazis     : SARC Basis sets                               
  Anastasios Papadopoulos: AUTO-CI, single reference methods and gradients 
  Taras Petrenko         : pre 6.0 DFT Hessian and TD-DFT gradient, (ASA, deprecated), ECA, 1-Electron XAS/XES, NRVS 
  Peter Pinski           : DLPNO-MP2, DLPNO-MP2 Gradient                 
  Christoph Reimann      : Effective Core Potentials                     
  Marius Retegan         : Local ZFS, SOC                                
  Christoph Riplinger    : Optimizer, TS searches, QM/MM, DLPNO-CCSD(T), (RO)-DLPNO pert. Triples 
  Michael Roemelt        : Original ROCIS implementation                 
  Masaaki Saitow         : Open-shell DLPNO-CCSD energy and density      
  Barbara Sandhoefer     : DKH picture change effects                    
  Kantharuban Sivalingam : CASSCF convergence/infrastructure, NEVPT2 and variants, FIC-MRCI 
  Bernardo de Souza      : ESD, SOC TD-DFT                               
  Georgi L. Stoychev     : AutoAux, RI-MP2 NMR, DLPNO-MP2 response, X2C  
  Van Anh Tran           : RI-MP2 g-tensors                              
  Willem Van den Heuvel  : Paramagnetic NMR                              
  Zikuan Wang            : NOTCH, Electric field optimization            
  Frank Wennmohs         : Technical directorship and infrastructure     
  Hang Xu                : AUTO-CI-Response properties                   
                                                                         
[FACCTs GmbH]                                                            
  Markus Bursch, Miquel Garcia-Rates, Christoph Riplinger, Bernardo de Souza, Georgi L. Stoychev 
                                                                 
  APM, Basis sets (HGBS, AHGBS, def-TZVP (Ac-Lr), def2-XVPD (La-Lu)), CI-OPT, improved COSX, DLPNO-Multilevel,           
  DOCKER, DRACO, updates on ESD, GOAT, IRC, LR-CPCM, MBIS, meta-GGA TD-DFT gradient, ML-optimized integration grids, 
  MM, NACMEs, nearIR, NEB, NEB-TS, NL-DFT gradient (VV10), 2- and 3-layer-ONIOM, interface openCOSMO-RS, QMMM,   
  Crystal-QMMM, SF, symmetry and pop. for TD-DFT, r2SCAN hybrids, SOLVATOR                                   
                                                                         
[Other institutions]                                                     
  V. Asgeirsson          : NEB                                           
  Christoph Bannwarth    : sTDA-DFT, sTD-DFT, PBEh-3c, B97-3c, D3        
  Sebastian Ehlert       : rSCAN, r2SCAN, r2SCAN-3c, D4, dhf basis sets  
  Marvin Friede          : D4 for Fr, Ra, Ac-Lr                          
  Lars Goerigk           : TD-DFT with DH, B97 family of functionals     
  Stefan Grimme          : VdW corrections, initial TS optimization, DFT functionals, gCP, sTDA/sTD-DF 
  Waldemar Hujo          : DFT-NL                                        
  H. Jonsson             : NEB                                           
  Holger Kruse           : gCP                                           
  Marcel Mueller         : wB97X-3c, vDZP basis set                      
  Hagen Neugebauer       : wr2SCAN                                       
  Tobias Risthaus        : range-separated hybrid DFT                    
  Lukas Wittmann         : regularized MP2, r2SCAN double-hybrids, wr2SCAN        
                                                                         
We gratefully acknowledge several colleagues who have allowed us to      
interface, adapt or use parts of their codes:                            
  Ed Valeev, F. Pavosevic, A. Kumar             : LibInt (2-el integral package), F12 methods 
  Garnet Chan, S. Sharma, J. Yang, R. Olivares  : DMRG                   
  Ulf Ekstrom                                   : XCFun DFT Library      
  Mihaly Kallay                                 : mrcc  (arbitrary order and MRCC methods)
  Frank Weinhold                                : gennbo (NPA and NBO analysis)           
  Simon Mueller                                 : openCOSMO-RS                            
  Christopher J. Cramer and Donald G. Truhlar   : smd solvation model                     
  S Lehtola, MJT Oliveira, MAL Marques          : LibXC Library                           
  Liviu Ungur et al                             : ANISO software                          


 Your calculation uses the libint2 library for the computation of 2-el integrals
 For citations please refer to: http://libint.valeyev.net

 Your ORCA version has been built with support for libXC version: 6.2.2
 For citations please refer to: https://libxc.gitlab.io

 This ORCA versions uses:
   CBLAS   interface :  Fast vector & matrix operations
   LAPACKE interface :  Fast linear algebra routines
   SCALAPACK package :  Parallel linear algebra routines
   Shared memory     :  Shared parallel matrices
   BLAS/LAPACK       :  OpenBLAS 0.3.27  USE64BITINT DYNAMIC_ARCH NO_AFFINITY Cooperlake SINGLE_THREADED
        Core in use  :  Cooperlake
   Copyright (c) 2011-2014, The OpenBLAS Project


NOTE: MaxCore=3600 MB was set to SCF,MP2,MDCI,CIPSI,MRCI and CIS
      => If you want to overwrite this, your respective input block should be placed after the MaxCore statement
Warning: RI is on but no J-basis has been assigned. Assigning Def2/J (nothing to worry about!)
================================================================================

----- Orbital basis set information -----
Your calculation utilizes the basis: def2-TZVP
   F. Weigend and R. Ahlrichs, Phys. Chem. Chem. Phys. 7, 3297 (2005).

----- AuxJ basis set information -----
Your calculation utilizes the auxiliary basis: def2/J
   F. Weigend, Phys. Chem. Chem. Phys. 8, 1057 (2006).

================================================================================
                                        WARNINGS
                       Please study these warnings very carefully!
================================================================================


WARNING: your system is open-shell and RHF/RKS was chosen
  ===> : WILL SWITCH to UHF/UKS


WARNING: Geometry Optimization
  ===> : Switching off AutoStart
         For restart on a previous wavefunction, please use MOREAD

================================================================================
                                       INPUT FILE
================================================================================
NAME = HEVCEQ-S6.inp
|  1> ! PBE0 def2-TZVP  Opt Freq DEFGRID3
|  2> 
|  3> %maxcore 3600
|  4> 
|  5> %pal
|  6>     nprocs 16
|  7> end
|  8> 
|  9> *xyz 0 4
| 10> Mn 1.7088 11.1352 3.7424
| 11> Cl 3.3024 9.794 2.4406
| 12> Cl 0.6068 9.321 4.9758
| 13> N 0.2854 12.7864 4.6104
| 14> N 2.5849 13.1399 2.935
| 15> N 3.0636 11.7549 5.5278
| 16> N 0.2051 11.3902 1.977
| 17> C 0.017 12.5817 6.0592
| 18> H -0.3187 11.6798 6.1858
| 19> H -0.6839 13.1942 6.3327
| 20> C 1.2159 12.7808 6.975
| 21> H 0.9003 12.753 7.8924
| 22> H 1.5679 13.6716 6.8188
| 23> C 2.3653 11.7869 6.8406
| 24> H 3.0207 11.9874 7.5267
| 25> H 2.0202 10.8989 7.0219
| 26> C 4.1266 10.7165 5.6419
| 27> H 4.7424 10.9629 6.3358
| 28> H 4.5959 10.6456 4.8074
| 29> H 3.7256 9.8702 5.856
| 30> C 3.6863 13.0578 5.1762
| 31> H 4.5455 13.1343 5.62
| 32> H 3.1207 13.7802 5.4934
| 33> C 3.8791 13.19 3.679
| 34> H 4.3239 14.0308 3.4883
| 35> H 4.4526 12.4732 3.368
| 36> C 1.7661 14.3453 3.2398
| 37> H 1.3076 14.6154 2.4287
| 38> H 2.365 15.0664 3.4883
| 39> C 0.7301 14.1839 4.3447
| 40> H 1.0976 14.5486 5.1637
| 41> H -0.0487 14.7128 4.1134
| 42> C 2.8856 13.0842 1.4863
| 43> H 3.4839 12.3368 1.3269
| 44> H 3.3614 13.893 1.2409
| 45> C 1.6849 12.9381 0.5673
| 46> H 1.0958 13.6925 0.7267
| 47> H 1.999 13.0091 -0.347
| 48> C 0.8609 11.6756 0.6783
| 49> H 0.1707 11.7104 -0.0031
| 50> H 1.4362 10.9253 0.4642
| 51> C -0.7598 12.4481 2.3662
| 52> H -1.6106 12.2825 1.9301
| 53> H -0.432 13.3097 2.0645
| 54> C -0.9645 12.4871 3.8649
| 55> H -1.628 13.1622 4.0759
| 56> H -1.3103 11.6297 4.1603
| 57> C -0.5216 10.118 1.8348
| 58> H 0.0973 9.4206 1.6051
| 59> H -1.1808 10.2015 1.1424
| 60> H -0.9544 9.9023 2.6647
| 61> *
| 62> 
| 63>                          ****END OF INPUT****
================================================================================

                       *****************************
                       * Geometry Optimization Run *
                       *****************************

Geometry optimization settings:
Update method            Update   .... BFGS
Choice of coordinates    CoordSys .... (2022) Redundant Internals
Initial Hessian          InHess   .... Almloef's Model
Max. no of cycles        MaxIter  .... 153

Convergence Tolerances:
Energy Change            TolE     ....  5.0000e-06 Eh
Max. Gradient            TolMAXG  ....  3.0000e-04 Eh/bohr
RMS Gradient             TolRMSG  ....  1.0000e-04 Eh/bohr
Max. Displacement        TolMAXD  ....  4.0000e-03 bohr
RMS Displacement         TolRMSD  ....  2.0000e-03 bohr
Strict Convergence                .... False

------------------------------------------------------------------------------
                        ORCA OPTIMIZATION COORDINATE SETUP
------------------------------------------------------------------------------

The optimization will be done in redundant internal coordinates (2022)
Making redundant internal coordinates   ...  (2022 redundants) done
Evaluating the initial hessian          ...  (Almloef) done
Evaluating the coordinates              ...  done
Calculating the B-matrix                .... done
Calculating the G-matrix                .... done
Diagonalizing the G-matrix              .... done
The first mode is                       ....  177
The number of degrees of freedom        ....  147

    -----------------------------------------------------------------
                    Redundant Internal Coordinates


    -----------------------------------------------------------------
         Definition                    Initial Value    Approx d2E/dq
    -----------------------------------------------------------------
      1. B(Cl  1,Mn  0)                  2.4562         0.282331   
      2. B(Cl  2,Mn  0)                  2.4550         0.283614   
      3. B(N   3,Mn  0)                  2.3465         0.168656   
      4. B(N   4,Mn  0)                  2.3320         0.177862   
      5. B(N   5,Mn  0)                  2.3253         0.182280   
      6. B(N   6,Mn  0)                  2.3330         0.177232   
      7. B(C   7,N   3)                  1.4876         0.390982   
      8. B(H   8,C   7)                  0.9706         0.558279   
      9. B(H   9,C   7)                  0.9702         0.559259   
     10. B(C  10,C   7)                  1.5217         0.385085   
     11. B(H  11,C  10)                  0.9706         0.558434   
     12. B(H  12,C  10)                  0.9705         0.558616   
     13. B(C  13,C  10)                  1.5255         0.379861   
     14. B(C  13,N   5)                  1.4873         0.391403   
     15. B(H  14,C  13)                  0.9698         0.560040   
     16. B(H  15,C  13)                  0.9698         0.560013   
     17. B(C  16,N   5)                  1.4904         0.386999   
     18. B(H  17,C  16)                  0.9599         0.580737   
     19. B(H  18,C  16)                  0.9600         0.580471   
     20. B(H  19,C  16)                  0.9607         0.579136   
     21. B(C  20,N   5)                  1.4862         0.392936   
     22. B(H  21,C  20)                  0.9701         0.559454   
     23. B(H  22,C  20)                  0.9708         0.558031   
     24. B(C  23,C  20)                  1.5153         0.394245   
     25. B(C  23,N   4)                  1.4937         0.382387   
     26. B(H  24,C  23)                  0.9701         0.559324   
     27. B(H  25,C  23)                  0.9692         0.561162   
     28. B(C  26,N   4)                  1.4887         0.389362   
     29. B(H  27,C  26)                  0.9701         0.559428   
     30. B(H  28,C  26)                  0.9698         0.560107   
     31. B(C  29,N   3)                  1.4904         0.386952   
     32. B(C  29,C  26)                  1.5232         0.383019   
     33. B(H  30,C  29)                  0.9689         0.561803   
     34. B(H  31,C  29)                  0.9694         0.560802   
     35. B(C  32,N   4)                  1.4806         0.401131   
     36. B(H  33,C  32)                  0.9706         0.558456   
     37. B(H  34,C  32)                  0.9699         0.559741   
     38. B(C  35,C  32)                  1.5191         0.388874   
     39. B(H  36,C  35)                  0.9703         0.558891   
     40. B(H  37,C  35)                  0.9694         0.560930   
     41. B(C  38,C  35)                  1.5117         0.399569   
     42. B(C  38,N   6)                  1.4826         0.398211   
     43. B(H  39,C  38)                  0.9705         0.558546   
     44. B(H  40,C  38)                  0.9694         0.560808   
     45. B(C  41,N   6)                  1.4838         0.396483   
     46. B(H  42,C  41)                  0.9703         0.558996   
     47. B(H  43,C  41)                  0.9700         0.559671   
     48. B(C  44,C  41)                  1.5131         0.397477   
     49. B(C  44,N   3)                  1.4858         0.393580   
     50. B(H  45,C  44)                  0.9698         0.560007   
     51. B(H  46,C  44)                  0.9706         0.558461   
     52. B(C  47,N   6)                  1.4720         0.414035   
     53. B(H  48,C  47)                  0.9603         0.579909   
     54. B(H  49,C  47)                  0.9597         0.581277   
     55. B(H  50,C  47)                  0.9605         0.579454   
     56. A(Cl  2,Mn  0,N   5)           94.1703         0.391604   
     57. A(Cl  1,Mn  0,N   3)          166.8731         0.386025   
     58. A(Cl  2,Mn  0,N   3)           93.5474         0.386330   
     59. A(Cl  1,Mn  0,N   6)           94.4048         0.389378   
     60. A(Cl  1,Mn  0,N   4)           92.4162         0.389619   
     61. A(N   3,Mn  0,N   4)           75.5842         0.344399   
     62. A(Cl  1,Mn  0,N   5)          100.0465         0.391293   
     63. A(N   3,Mn  0,N   5)           83.2158         0.345821   
     64. A(Cl  2,Mn  0,N   6)           99.8825         0.389686   
     65. A(N   5,Mn  0,N   6)          158.0343         0.348720   
     66. A(N   4,Mn  0,N   5)           79.5052         0.348929   
     67. A(Cl  1,Mn  0,Cl  2)           98.8584         0.438974   
     68. A(Cl  2,Mn  0,N   4)          167.9170         0.389928   
     69. A(N   4,Mn  0,N   6)           83.4650         0.347282   
     70. A(N   3,Mn  0,N   6)           79.1651         0.344194   
     71. A(C   7,N   3,C  44)          108.0089         0.364889   
     72. A(C   7,N   3,C  29)          110.8842         0.363831   
     73. A(C  29,N   3,C  44)          110.5138         0.364243   
     74. A(Mn  0,N   3,C  44)          100.5412         0.353053   
     75. A(Mn  0,N   3,C  29)          114.3858         0.352040   
     76. A(Mn  0,N   3,C   7)          111.8936         0.352657   
     77. A(C  23,N   4,C  26)          110.3293         0.362836   
     78. A(Mn  0,N   4,C  26)          114.7417         0.355597   
     79. A(C  23,N   4,C  32)          108.2195         0.364688   
     80. A(Mn  0,N   4,C  32)          112.5021         0.357400   
     81. A(C  26,N   4,C  32)          110.0281         0.365818   
     82. A(Mn  0,N   4,C  23)          100.4801         0.354509   
     83. A(C  13,N   5,C  20)          112.7469         0.364854   
     84. A(C  13,N   5,C  16)          106.3966         0.363905   
     85. A(Mn  0,N   5,C  16)          106.7773         0.356713   
     86. A(Mn  0,N   5,C  13)          114.1988         0.357399   
     87. A(Mn  0,N   5,C  20)          107.2230         0.357637   
     88. A(C  16,N   5,C  20)          109.2726         0.364149   
     89. A(C  38,N   6,C  47)          107.4646         0.369231   
     90. A(Mn  0,N   6,C  47)          107.2674         0.359113   
     91. A(C  41,N   6,C  47)          108.6928         0.368955   
     92. A(Mn  0,N   6,C  41)          107.3724         0.356478   
     93. A(Mn  0,N   6,C  38)          113.5025         0.356742   
     94. A(C  38,N   6,C  41)          112.3435         0.366497   
     95. A(N   3,C   7,H   8)          108.4989         0.349403   
     96. A(H   9,C   7,C  10)          108.4771         0.350766   
     97. A(H   8,C   7,C  10)          108.3945         0.350662   
     98. A(N   3,C   7,C  10)          115.2116         0.365808   
     99. A(H   8,C   7,H   9)          107.4571         0.335252   
    100. A(N   3,C   7,H   9)          108.5439         0.349506   
    101. A(H  11,C  10,C  13)          108.0367         0.349871   
    102. A(H  12,C  10,C  13)          108.0940         0.349890   
    103. A(C   7,C  10,C  13)          117.0880         0.366288   
    104. A(H  11,C  10,H  12)          107.2396         0.335204   
    105. A(C   7,C  10,H  12)          107.9985         0.350698   
    106. A(C   7,C  10,H  11)          107.9937         0.350678   
    107. A(N   5,C  13,H  14)          108.1565         0.349652   
    108. A(N   5,C  13,C  10)          116.4584         0.365021   
    109. A(H  14,C  13,H  15)          107.3098         0.335503   
    110. A(C  10,C  13,H  15)          108.1794         0.350037   
    111. A(N   5,C  13,H  15)          108.2029         0.349649   
    112. A(C  10,C  13,H  14)          108.1906         0.350040   
    113. A(H  18,C  16,H  19)          109.4338         0.339406   
    114. A(H  17,C  16,H  19)          109.4396         0.339432   
    115. A(N   5,C  16,H  19)          109.4590         0.350966   
    116. A(H  17,C  16,H  18)          109.4946         0.339563   
    117. A(N   5,C  16,H  18)          109.4853         0.351103   
    118. A(N   5,C  16,H  17)          109.5150         0.351130   
    119. A(H  22,C  20,C  23)          109.3933         0.352031   
    120. A(H  21,C  20,C  23)          109.4173         0.352183   
    121. A(N   5,C  20,C  23)          111.3167         0.367599   
    122. A(H  21,C  20,H  22)          107.9311         0.335247   
    123. A(N   5,C  20,H  22)          109.3263         0.349671   
    124. A(N   5,C  20,H  21)          109.3898         0.349821   
    125. A(H  24,C  23,H  25)          107.8539         0.335546   
    126. A(C  20,C  23,H  25)          109.1349         0.352365   
    127. A(N   4,C  23,H  25)          109.1508         0.348399   
    128. A(C  20,C  23,H  24)          109.1573         0.352169   
    129. A(N   4,C  23,H  24)          109.1733         0.348206   
    130. A(N   4,C  23,C  20)          112.2703         0.365888   
    131. A(N   4,C  26,H  28)          108.3529         0.349351   
    132. A(N   4,C  26,H  27)          108.3129         0.349280   
    133. A(H  28,C  26,C  29)          108.2375         0.350537   
    134. A(H  27,C  26,C  29)          108.3330         0.350465   
    135. A(N   4,C  26,C  29)          115.8997         0.365211   
    136. A(H  27,C  26,H  28)          107.4042         0.335452   
    137. A(H  30,C  29,H  31)          107.5194         0.335757   
    138. A(C  26,C  29,H  31)          108.3925         0.350610   
    139. A(N   3,C  29,H  31)          108.3248         0.349058   
    140. A(C  26,C  29,H  30)          108.3780         0.350716   
    141. A(N   3,C  29,H  30)          108.3855         0.349163   
    142. A(N   3,C  29,C  26)          115.5695         0.364824   
    143. A(H  34,C  32,C  35)          108.3533         0.351398   
    144. A(H  33,C  32,C  35)          108.2902         0.351261   
    145. A(N   4,C  32,C  35)          115.7867         0.368036   
    146. A(H  33,C  32,H  34)          107.3490         0.335318   
    147. A(N   4,C  32,H  34)          108.4096         0.351073   
    148. A(N   4,C  32,H  33)          108.3523         0.350937   
    149. A(H  37,C  35,C  38)          107.8817         0.353141   
    150. A(H  36,C  35,C  38)          107.8372         0.352923   
    151. A(C  32,C  35,C  38)          117.8232         0.370103   
    152. A(H  36,C  35,H  37)          107.1406         0.335480   
    153. A(C  32,C  35,H  37)          107.9057         0.351524   
    154. A(C  32,C  35,H  36)          107.8010         0.351308   
    155. A(H  39,C  38,H  40)          107.1417         0.335433   
    156. A(C  35,C  38,H  40)          107.8600         0.353128   
    157. A(N   6,C  38,H  40)          107.8768         0.350753   
    158. A(C  35,C  38,H  39)          107.8273         0.352886   
    159. A(N   6,C  38,H  39)          107.8991         0.350513   
    160. A(N   6,C  38,C  35)          117.7873         0.369291   
    161. A(H  43,C  41,C  44)          109.3236         0.352693   
    162. A(H  42,C  41,C  44)          109.3262         0.352621   
    163. A(N   6,C  41,C  44)          111.4784         0.368683   
    164. A(H  42,C  41,H  43)          107.9469         0.335365   
    165. A(N   6,C  41,H  43)          109.3879         0.350375   
    166. A(N   6,C  41,H  42)          109.3072         0.350304   
    167. A(H  45,C  44,H  46)          107.7571         0.335345   
    168. A(C  41,C  44,H  46)          109.0803         0.352564   
    169. A(N   3,C  44,H  46)          108.9634         0.349813   
    170. A(C  41,C  44,H  45)          109.0259         0.352729   
    171. A(N   3,C  44,H  45)          109.0349         0.349976   
    172. A(N   3,C  44,C  41)          112.8523         0.368218   
    173. A(H  49,C  47,H  50)          109.4765         0.339516   
    174. A(H  48,C  47,H  50)          109.5109         0.339382   
    175. A(N   6,C  47,H  50)          109.4551         0.355034   
    176. A(H  48,C  47,H  49)          109.4702         0.339560   
    177. A(N   6,C  47,H  49)          109.4884         0.355223   
    178. A(N   6,C  47,H  48)          109.4263         0.355081   
    179. D(C   7,N   3,Mn  0,Cl  1)   -157.6916         0.001665   
    180. D(C   7,N   3,Mn  0,N   6)    140.7589         0.001665   
    181. D(C  29,N   3,Mn  0,N   4)     -6.1241         0.001665   
    182. D(C   7,N   3,Mn  0,N   5)    -52.4188         0.001665   
    183. D(C  29,N   3,Mn  0,Cl  2)    168.5221         0.001665   
    184. D(C   7,N   3,Mn  0,N   4)   -133.2807         0.001665   
    185. D(C  29,N   3,Mn  0,Cl  1)    -30.5350         0.001665   
    186. D(C   7,N   3,Mn  0,Cl  2)     41.3654         0.001665   
    187. D(C  26,N   4,Mn  0,Cl  1)    168.7057         0.001683   
    188. D(C  23,N   4,Mn  0,N   5)     26.7908         0.001683   
    189. D(C  26,N   4,Mn  0,Cl  2)    -32.3201         0.001683   
    190. D(C  23,N   4,Mn  0,N   6)   -167.1428         0.001683   
    191. D(C  23,N   4,Mn  0,N   3)    112.4075         0.001683   
    192. D(C  23,N   4,Mn  0,Cl  2)     85.9913         0.001683   
    193. D(C  23,N   4,Mn  0,Cl  1)    -72.9829         0.001683   
    194. D(C  26,N   4,Mn  0,N   3)     -5.9039         0.001683   
    195. D(C  16,N   5,Mn  0,Cl  2)     74.5634         0.001692   
    196. D(C  16,N   5,Mn  0,Cl  1)    -25.2084         0.001692   
    197. D(C  16,N   5,Mn  0,N   3)    167.6475         0.001692   
    198. D(C  13,N   5,Mn  0,N   4)    126.8724         0.001692   
    199. D(C  13,N   5,Mn  0,N   6)     87.1125         0.001692   
    200. D(C  13,N   5,Mn  0,N   3)     50.3427         0.001692   
    201. D(C  13,N   5,Mn  0,Cl  2)    -42.7413         0.001692   
    202. D(C  13,N   5,Mn  0,Cl  1)   -142.5131         0.001692   
    203. D(C  41,N   6,Mn  0,Cl  2)     93.1669         0.001682   
    204. D(C  41,N   6,Mn  0,N   3)      1.4132         0.001682   
    205. D(C  41,N   6,Mn  0,Cl  1)   -167.0339         0.001682   
    206. D(C  38,N   6,Mn  0,N   5)     88.9489         0.001682   
    207. D(C  38,N   6,Mn  0,N   4)     49.6781         0.001682   
    208. D(C  38,N   6,Mn  0,Cl  1)    -42.2551         0.001682   
    209. D(C  38,N   6,Mn  0,Cl  2)   -142.0542         0.001682   
    210. D(C  38,N   6,Mn  0,N   3)    126.1921         0.001682   
    211. D(H   8,C   7,N   3,Mn  0)    -54.2484         0.013980   
    212. D(H   9,C   7,N   3,C  44)    -60.9760         0.013980   
    213. D(H   9,C   7,N   3,C  29)     60.2512         0.013980   
    214. D(H   9,C   7,N   3,Mn  0)   -170.7288         0.013980   
    215. D(H   8,C   7,N   3,C  44)     55.5044         0.013980   
    216. D(H   8,C   7,N   3,C  29)    176.7316         0.013980   
    217. D(H  12,C  10,C   7,H   9)    -65.7826         0.011803   
    218. D(H  12,C  10,C   7,N   3)     56.0841         0.011803   
    219. D(H  12,C  10,C   7,H   8)    177.8293         0.011803   
    220. D(H  11,C  10,C   7,H   9)     49.8860         0.011803   
    221. D(H  11,C  10,C   7,H   8)    -66.5020         0.011803   
    222. D(H  11,C  10,C   7,N   3)    171.7527         0.011803   
    223. D(H  14,C  13,C  10,H  12)     62.4281         0.011501   
    224. D(H  14,C  13,C  10,H  11)    -53.3123         0.011501   
    225. D(N   5,C  13,C  10,H  12)    -59.5719         0.011501   
    226. D(N   5,C  13,C  10,H  11)   -175.3123         0.011501   
    227. D(N   5,C  13,C  10,C   7)     62.5843         0.011501   
    228. D(H  14,C  13,N   5,C  20)    -61.5461         0.014010   
    229. D(H  14,C  13,N   5,C  16)     58.2189         0.014010   
    230. D(H  14,C  13,N   5,Mn  0)    175.7423         0.014010   
    231. D(H  14,C  13,C  10,C   7)   -175.4158         0.011501   
    232. D(C  10,C  13,N   5,C  20)     60.4718         0.014010   
    233. D(C  10,C  13,N   5,C  16)   -179.7632         0.014010   
    234. D(C  10,C  13,N   5,Mn  0)    -62.2398         0.014010   
    235. D(H  18,C  16,N   5,C  20)    -59.1896         0.013703   
    236. D(H  18,C  16,N   5,Mn  0)     56.4706         0.013703   
    237. D(H  17,C  16,N   5,C  20)     60.8745         0.013703   
    238. D(H  17,C  16,N   5,C  13)    -61.1221         0.013703   
    239. D(H  17,C  16,N   5,Mn  0)    176.5347         0.013703   
    240. D(H  18,C  16,N   5,C  13)    178.8138         0.013703   
    241. D(H  21,C  20,N   5,Mn  0)   -151.2635         0.014118   
    242. D(H  22,C  20,N   5,C  16)   -153.8783         0.014118   
    243. D(H  22,C  20,N   5,C  13)    -35.7878         0.014118   
    244. D(H  22,C  20,N   5,Mn  0)     90.7470         0.014118   
    245. D(H  21,C  20,N   5,C  16)    -35.8888         0.014118   
    246. D(H  21,C  20,N   5,C  13)     82.2018         0.014118   
    247. D(H  24,C  23,C  20,H  22)     61.6907         0.012346   
    248. D(H  24,C  23,C  20,N   5)   -177.3795         0.012346   
    249. D(N   4,C  23,C  20,H  22)    -59.5059         0.012346   
    250. D(N   4,C  23,C  20,H  21)   -177.5507         0.012346   
    251. D(N   4,C  23,C  20,N   5)     61.4239         0.012346   
    252. D(H  24,C  23,N   4,C  32)     66.6545         0.013386   
    253. D(H  24,C  23,N   4,C  26)    -53.7739         0.013386   
    254. D(H  24,C  23,N   4,Mn  0)   -175.2696         0.013386   
    255. D(C  20,C  23,N   4,C  32)   -172.1582         0.013386   
    256. D(H  24,C  23,C  20,H  21)    -56.3542         0.012346   
    257. D(C  20,C  23,N   4,C  26)     67.4135         0.013386   
    258. D(C  20,C  23,N   4,Mn  0)    -54.0822         0.013386   
    259. D(H  28,C  26,N   4,C  32)    -92.9207         0.013867   
    260. D(H  28,C  26,N   4,C  23)     26.4161         0.013867   
    261. D(H  28,C  26,N   4,Mn  0)    139.0175         0.013867   
    262. D(H  27,C  26,N   4,C  32)     23.2948         0.013867   
    263. D(H  27,C  26,N   4,C  23)    142.6316         0.013867   
    264. D(H  27,C  26,N   4,Mn  0)   -104.7670         0.013867   
    265. D(H  30,C  29,C  26,H  28)    -23.0458         0.011683   
    266. D(H  30,C  29,C  26,H  27)   -139.2106         0.011683   
    267. D(H  30,C  29,C  26,N   4)     98.8608         0.011683   
    268. D(N   3,C  29,C  26,H  28)   -144.8761         0.011683   
    269. D(N   3,C  29,C  26,H  27)     98.9591         0.011683   
    270. D(N   3,C  29,C  26,N   4)    -22.9695         0.011683   
    271. D(H  30,C  29,N   3,C  44)    142.8563         0.013700   
    272. D(H  30,C  29,N   3,C   7)     23.1162         0.013700   
    273. D(H  30,C  29,N   3,Mn  0)   -104.5573         0.013700   
    274. D(C  26,C  29,N   3,C  44)    -95.3174         0.013700   
    275. D(C  26,C  29,N   3,C   7)    144.9424         0.013700   
    276. D(C  26,C  29,N   3,Mn  0)     17.2690         0.013700   
    277. D(H  34,C  32,N   4,C  26)     58.8046         0.014704   
    278. D(H  34,C  32,N   4,C  23)    -61.8114         0.014704   
    279. D(H  34,C  32,N   4,Mn  0)   -171.9098         0.014704   
    280. D(H  33,C  32,N   4,C  26)    175.0062         0.014704   
    281. D(H  33,C  32,N   4,C  23)     54.3902         0.014704   
    282. D(H  33,C  32,N   4,Mn  0)    -55.7082         0.014704   
    283. D(H  37,C  35,C  32,H  34)     52.0453         0.012026   
    284. D(H  37,C  35,C  32,H  33)    -64.0933         0.012026   
    285. D(H  37,C  35,C  32,N   4)    174.0380         0.012026   
    286. D(H  36,C  35,C  32,H  34)    -63.3611         0.012026   
    287. D(H  36,C  35,C  32,H  33)   -179.4997         0.012026   
    288. D(H  36,C  35,C  32,N   4)     58.6316         0.012026   
    289. D(H  39,C  38,C  35,H  37)    -54.3208         0.012668   
    290. D(H  39,C  38,C  35,H  36)     61.0918         0.012668   
    291. D(H  39,C  38,C  35,C  32)   -176.7030         0.012668   
    292. D(N   6,C  38,C  35,H  37)   -176.6234         0.012668   
    293. D(N   6,C  38,C  35,H  36)    -61.2107         0.012668   
    294. D(N   6,C  38,C  35,C  32)     60.9944         0.012668   
    295. D(H  39,C  38,N   6,C  47)     58.0641         0.014494   
    296. D(H  39,C  38,N   6,C  41)    -61.4455         0.014494   
    297. D(H  39,C  38,N   6,Mn  0)    176.4979         0.014494   
    298. D(C  35,C  38,N   6,C  47)   -179.6700         0.014494   
    299. D(C  35,C  38,N   6,C  41)     60.8204         0.014494   
    300. D(C  35,C  38,N   6,Mn  0)    -61.2362         0.014494   
    301. D(H  43,C  41,N   6,C  38)    -34.4877         0.014370   
    302. D(H  43,C  41,N   6,Mn  0)     90.9878         0.014370   
    303. D(H  42,C  41,N   6,C  47)    -35.2820         0.014370   
    304. D(H  42,C  41,N   6,C  38)     83.5087         0.014370   
    305. D(H  42,C  41,N   6,Mn  0)   -151.0157         0.014370   
    306. D(H  43,C  41,N   6,C  47)   -153.2784         0.014370   
    307. D(H  45,C  44,C  41,H  43)     61.3787         0.012541   
    308. D(H  45,C  44,C  41,N   6)   -177.5565         0.012541   
    309. D(N   3,C  44,C  41,H  43)    -59.9334         0.012541   
    310. D(N   3,C  44,C  41,H  42)   -177.9034         0.012541   
    311. D(N   3,C  44,C  41,N   6)     61.1313         0.012541   
    312. D(H  45,C  44,N   3,C  29)    -53.7050         0.014163   
    313. D(H  45,C  44,N   3,C   7)     67.7521         0.014163   
    314. D(H  45,C  44,N   3,Mn  0)   -174.9048         0.014163   
    315. D(C  41,C  44,N   3,C  29)     67.6021         0.014163   
    316. D(H  45,C  44,C  41,H  42)    -56.5912         0.012541   
    317. D(C  41,C  44,N   3,C   7)   -170.9409         0.014163   
    318. D(C  41,C  44,N   3,Mn  0)    -53.5978         0.014163   
    319. D(H  49,C  47,N   6,C  41)     61.4777         0.015658   
    320. D(H  49,C  47,N   6,C  38)    -60.3368         0.015658   
    321. D(H  49,C  47,N   6,Mn  0)    177.2793         0.015658   
    322. D(H  48,C  47,N   6,C  41)   -178.5406         0.015658   
    323. D(H  48,C  47,N   6,C  38)     59.6449         0.015658   
    324. D(H  48,C  47,N   6,Mn  0)    -62.7390         0.015658   
    -----------------------------------------------------------------

Number of atoms                         .... 51
Number of degrees of freedom            .... 324


         *************************************************************
         *                GEOMETRY OPTIMIZATION CYCLE   1            *
         *************************************************************
---------------------------------
CARTESIAN COORDINATES (ANGSTROEM)
---------------------------------
  Mn     1.708800   11.135200    3.742400
  Cl     3.302400    9.794000    2.440600
  Cl     0.606800    9.321000    4.975800
  N      0.285400   12.786400    4.610400
  N      2.584900   13.139900    2.935000
  N      3.063600   11.754900    5.527800
  N      0.205100   11.390200    1.977000
  C      0.017000   12.581700    6.059200
  H     -0.318700   11.679800    6.185800
  H     -0.683900   13.194200    6.332700
  C      1.215900   12.780800    6.975000
  H      0.900300   12.753000    7.892400
  H      1.567900   13.671600    6.818800
  C      2.365300   11.786900    6.840600
  H      3.020700   11.987400    7.526700
  H      2.020200   10.898900    7.021900
  C      4.126600   10.716500    5.641900
  H      4.742400   10.962900    6.335800
  H      4.595900   10.645600    4.807400
  H      3.725600    9.870200    5.856000
  C      3.686300   13.057800    5.176200
  H      4.545500   13.134300    5.620000
  H      3.120700   13.780200    5.493400
  C      3.879100   13.190000    3.679000
  H      4.323900   14.030800    3.488300
  H      4.452600   12.473200    3.368000
  C      1.766100   14.345300    3.239800
  H      1.307600   14.615400    2.428700
  H      2.365000   15.066400    3.488300
  C      0.730100   14.183900    4.344700
  H      1.097600   14.548600    5.163700
  H     -0.048700   14.712800    4.113400
  C      2.885600   13.084200    1.486300
  H      3.483900   12.336800    1.326900
  H      3.361400   13.893000    1.240900
  C      1.684900   12.938100    0.567300
  H      1.095800   13.692500    0.726700
  H      1.999000   13.009100   -0.347000
  C      0.860900   11.675600    0.678300
  H      0.170700   11.710400   -0.003100
  H      1.436200   10.925300    0.464200
  C     -0.759800   12.448100    2.366200
  H     -1.610600   12.282500    1.930100
  H     -0.432000   13.309700    2.064500
  C     -0.964500   12.487100    3.864900
  H     -1.628000   13.162200    4.075900
  H     -1.310300   11.629700    4.160300
  C     -0.521600   10.118000    1.834800
  H      0.097300    9.420600    1.605100
  H     -1.180800   10.201500    1.142400
  H     -0.954400    9.902300    2.664700

----------------------------
CARTESIAN COORDINATES (A.U.)
----------------------------
  NO LB      ZA    FRAG     MASS         X           Y           Z
   0 Mn   25.0000    0    54.940    3.229164   21.042478    7.072111
   1 Cl   17.0000    0    35.453    6.240632   18.507978    4.612066
   2 Cl   17.0000    0    35.453    1.146686   17.614137    9.402899
   3 N     7.0000    0    14.007    0.539328   24.162794    8.712393
   4 N     7.0000    0    14.007    4.884753   24.830812    5.546346
   5 N     7.0000    0    14.007    5.789365   22.213542   10.446028
   6 N     7.0000    0    14.007    0.387583   21.524359    3.735989
   7 C     6.0000    0    12.011    0.032125   23.775967   11.450229
   8 H     1.0000    0     1.008   -0.602256   22.071623   11.689468
   9 H     1.0000    0     1.008   -1.292384   24.933425   11.967069
  10 C     6.0000    0    12.011    2.297718   24.152212   13.180840
  11 H     1.0000    0     1.008    1.701320   24.099677   14.914475
  12 H     1.0000    0     1.008    2.962902   25.835580   12.885665
  13 C     6.0000    0    12.011    4.469769   22.274013   12.926861
  14 H     1.0000    0     1.008    5.708296   22.652903   14.223402
  15 H     1.0000    0     1.008    3.817625   20.595936   13.269468
  16 C     6.0000    0    12.011    7.798144   20.251250   10.661646
  17 H     1.0000    0     1.008    8.961837   20.716879   11.972927
  18 H     1.0000    0     1.008    8.684992   20.117269    9.084669
  19 H     1.0000    0     1.008    7.040364   18.651975   11.066236
  20 C     6.0000    0    12.011    6.966097   24.675666    9.781600
  21 H     1.0000    0     1.008    8.589750   24.820230   10.620261
  22 H     1.0000    0     1.008    5.897268   26.040804   10.381022
  23 C     6.0000    0    12.011    7.330437   24.925488    6.952302
  24 H     1.0000    0     1.008    8.170987   26.514369    6.591932
  25 H     1.0000    0     1.008    8.414195   23.570932    6.364598
  26 C     6.0000    0    12.011    3.337445   27.108688    6.122335
  27 H     1.0000    0     1.008    2.471006   27.619103    4.589578
  28 H     1.0000    0     1.008    4.469202   28.471370    6.591932
  29 C     6.0000    0    12.011    1.379689   26.803687    8.210293
  30 H     1.0000    0     1.008    2.074163   27.492870    9.757979
  31 H     1.0000    0     1.008   -0.092030   27.803163    7.773199
  32 C     6.0000    0    12.011    5.452994   24.725555    2.808700
  33 H     1.0000    0     1.008    6.583617   23.313173    2.507478
  34 H     1.0000    0     1.008    6.352125   26.253965    2.344961
  35 C     6.0000    0    12.011    3.184000   24.449466    1.072042
  36 H     1.0000    0     1.008    2.070762   25.875075    1.373264
  37 H     1.0000    0     1.008    3.777563   24.583636   -0.655735
  38 C     6.0000    0    12.011    1.626865   22.063686    1.281801
  39 H     1.0000    0     1.008    0.322576   22.129449   -0.005858
  40 H     1.0000    0     1.008    2.714025   20.645825    0.877211
  41 C     6.0000    0    12.011   -1.435814   23.523500    4.471470
  42 H     1.0000    0     1.008   -3.043593   23.210561    3.647360
  43 H     1.0000    0     1.008   -0.816362   25.151688    3.901340
  44 C     6.0000    0    12.011   -1.822641   23.597199    7.303603
  45 H     1.0000    0     1.008   -3.076474   24.872953    7.702335
  46 H     1.0000    0     1.008   -2.476108   21.976948    7.861828
  47 C     6.0000    0    12.011   -0.985681   19.120249    3.467270
  48 H     1.0000    0     1.008    0.183870   17.802354    3.033199
  49 H     1.0000    0     1.008   -2.231389   19.278041    2.158823
  50 H     1.0000    0     1.008   -1.803555   18.712635    5.035553

--------------------------------
INTERNAL COORDINATES (ANGSTROEM)
--------------------------------
 Mn     0   0   0     0.000000000000     0.00000000     0.00000000
 Cl     1   0   0     2.456229150548     0.00000000     0.00000000
 Cl     1   2   0     2.454995152745    98.85839601     0.00000000
 N      1   2   3     2.346476720532   166.87312567   199.25775466
 N      1   2   3     2.332009446808    92.41617615   175.64068890
 N      1   2   3     2.325331006545   100.04651979    95.87484057
 N      1   2   3     2.332975749981    94.40481142   259.26776121
 C      4   1   6     1.487602799809   111.89359102   307.58122803
 H      8   4   1     0.970641880407   108.49888327   305.75159763
 H      8   4   1     0.970164578822   108.54393402   189.27116303
 C      8   4   1     1.521739682074   115.21161199    67.44051369
 H     11   8   4     0.970566308915   107.99366453   171.75268991
 H     11   8   4     0.970477758632   107.99846361    56.08405433
 C      6   1   2     1.487309897096   114.19878056   217.48689376
 H     14   6   1     0.969784831805   108.15649926   175.74231472
 H     14   6   1     0.969797762423   108.20289637    59.80010057
 C      6   1   2     1.490390006005   106.77732619   334.79161643
 H     17   6   1     0.959906146454   109.51495631   176.53465772
 H     17   6   1     0.960031015124   109.48531381    56.47055170
 H     17   6   1     0.960657847519   109.45900157   296.51518444
 C      6   1   2     1.486245693013   107.22297086    91.81662831
 H     21   6   1     0.970069755224   109.38981752   208.73654005
 H     21   6   1     0.970763081292   109.32628513    90.74702485
 C      5   1   2     1.493653122381   100.48014810   287.01709460
 H     24   5   1     0.970133068192   109.17327956   184.73042411
 H     24   5   1     0.969239645289   109.15077400    67.06132190
 C      5   1   2     1.488732897467   114.74167289   168.70566659
 H     27   5   1     0.970082197548   108.31292359   255.23301716
 H     27   5   1     0.969751860014   108.35292961   139.01751541
 C      4   1   6     1.490423037262   114.38582223    74.73785074
 H     30   4   1     0.968928965405   108.38553290   255.44271562
 H     30   4   1     0.969414431500   108.32479909   139.06745048
 C      5   1   2     1.480626445124   112.50214035    41.90190310
 H     33   5   1     0.970555516186   108.35229733   304.29181399
 H     33   5   1     0.969930018094   108.40962989   188.09020978
 C     33   5   1     1.519074290481   115.78666879    66.12751377
 H     36  33   5     0.970343511340   107.80096959    58.63155022
 H     36  33   5     0.969352515858   107.90574213   174.03796258
 C      7   1   2     1.482615422151   113.50252958   317.74491138
 H     39   7   1     0.970511741299   107.89911423   176.49786658
 H     39   7   1     0.969411672098   107.87675023    61.05491130
 C      7   1   2     1.483799534978   107.37243897   192.96607571
 H     42   7   1     0.970292332238   109.30719397   208.98425402
 H     42   7   1     0.969964066345   109.38791987    90.98784948
 C      4   1   6     1.485799700498   100.54119575   193.14401925
 H     45   4   1     0.969800628995   109.03490731   185.09516708
 H     45   4   1     0.970553223682   108.96343407    67.72813696
 C      7   1   2     1.472007666420   107.26741815    76.29232444
 H     48   7   1     0.960294777659   109.42625322   297.26101088
 H     48   7   1     0.959653400973   109.48837946   177.27932390
 H     48   7   1     0.960508375809   109.45512990    57.27219346

---------------------------
INTERNAL COORDINATES (A.U.)
---------------------------
 Mn     0   0   0     0.000000000000     0.00000000     0.00000000
 Cl     1   0   0     4.641600416689     0.00000000     0.00000000
 Cl     1   2   0     4.639268498792    98.85839601     0.00000000
 N      1   2   3     4.434198381428   166.87312567   199.25775466
 N      1   2   3     4.406859196184    92.41617615   175.64068890
 N      1   2   3     4.394238773086   100.04651979    95.87484057
 N      1   2   3     4.408685244544    94.40481142   259.26776121
 C      4   1   6     2.811161887694   111.89359102   307.58122803
 H      8   4   1     1.834247328084   108.49888327   305.75159763
 H      8   4   1     1.833345358804   108.54393402   189.27116303
 C      8   4   1     2.875671246241   115.21161199    67.44051369
 H     11   8   4     1.834104518659   107.99366453   171.75268991
 H     11   8   4     1.833937182877   107.99846361    56.08405433
 C      6   1   2     2.810608381782   114.19878056   217.48689376
 H     14   6   1     1.832627740943   108.15649926   175.74231472
 H     14   6   1     1.832652176268   108.20289637    59.80010057
 C      6   1   2     2.816428944083   106.77732619   334.79161643
 H     17   6   1     1.813959731066   109.51495631   176.53465772
 H     17   6   1     1.814195698655   109.48531381    56.47055170
 H     17   6   1     1.815380240213   109.45900157   296.51518444
 C      6   1   2     2.808597327515   107.22297086    91.81662831
 H     21   6   1     1.833166168173   109.38981752   208.73654005
 H     21   6   1     1.834476364564   109.32628513    90.74702485
 C      5   1   2     2.822595340377   100.48014810   287.01709460
 H     24   5   1     1.833285812344   109.17327956   184.73042411
 H     24   5   1     1.831597487735   109.15077400    67.06132190
 C      5   1   2     2.813297462771   114.74167289   168.70566659
 H     27   5   1     1.833189680759   108.31292359   255.23301716
 H     27   5   1     1.832565433287   108.35292961   139.01751541
 C      4   1   6     2.816491364111   114.38582223    74.73785074
 H     30   4   1     1.831010387838   108.38553290   255.44271562
 H     30   4   1     1.831927785806   108.32479909   139.06745048
 C      5   1   2     2.797978487925   112.50214035    41.90190310
 H     33   5   1     1.834084123359   108.35229733   304.29181399
 H     33   5   1     1.832902103267   108.40962989   188.09020978
 C     33   5   1     2.870634386090   115.78666879    66.12751377
 H     36  33   5     1.833683492260   107.80096959    58.63155022
 H     36  33   5     1.831810782199   107.90574213   174.03796258
 C      7   1   2     2.801737109793   113.50252958   317.74491138
 H     39   7   1     1.834001400811   107.89911423   176.49786658
 H     39   7   1     1.831922571292   107.87675023    61.05491130
 C      7   1   2     2.803974758748   107.37243897   192.96607571
 H     42   7   1     1.833586777774   109.30719397   208.98425402
 H     42   7   1     1.832966445136   109.38791987    90.98784948
 C      4   1   6     2.807754523803   100.54119575   193.14401925
 H     45   4   1     1.832657593306   109.03490731   185.09516708
 H     45   4   1     1.834079791154   108.96343407    67.72813696
 C      7   1   2     2.781691356567   107.26741815    76.29232444
 H     48   7   1     1.814694137611   109.42625322   297.26101088
 H     48   7   1     1.813482111326   109.48837946   177.27932390
 H     48   7   1     1.815097779617   109.45512990    57.27219346

---------------------
BASIS SET INFORMATION
---------------------
There are 5 groups of distinct atoms

 Group   1 Type Mn  : 17s11p7d1f contracted to 6s4p4d1f pattern {842111/6311/4111/1}
 Group   2 Type Cl  : 14s9p3d1f contracted to 5s5p2d1f pattern {73211/51111/21/1}
 Group   3 Type N   : 11s6p2d1f contracted to 5s3p2d1f pattern {62111/411/11/1}
 Group   4 Type C   : 11s6p2d1f contracted to 5s3p2d1f pattern {62111/411/11/1}
 Group   5 Type H   : 5s1p contracted to 3s1p pattern {311/1}

Atom   0Mn   basis set group =>   1
Atom   1Cl   basis set group =>   2
Atom   2Cl   basis set group =>   2
Atom   3N    basis set group =>   3
Atom   4N    basis set group =>   3
Atom   5N    basis set group =>   3
Atom   6N    basis set group =>   3
Atom   7C    basis set group =>   4
Atom   8H    basis set group =>   5
Atom   9H    basis set group =>   5
Atom  10C    basis set group =>   4
Atom  11H    basis set group =>   5
Atom  12H    basis set group =>   5
Atom  13C    basis set group =>   4
Atom  14H    basis set group =>   5
Atom  15H    basis set group =>   5
Atom  16C    basis set group =>   4
Atom  17H    basis set group =>   5
Atom  18H    basis set group =>   5
Atom  19H    basis set group =>   5
Atom  20C    basis set group =>   4
Atom  21H    basis set group =>   5
Atom  22H    basis set group =>   5
Atom  23C    basis set group =>   4
Atom  24H    basis set group =>   5
Atom  25H    basis set group =>   5
Atom  26C    basis set group =>   4
Atom  27H    basis set group =>   5
Atom  28H    basis set group =>   5
Atom  29C    basis set group =>   4
Atom  30H    basis set group =>   5
Atom  31H    basis set group =>   5
Atom  32C    basis set group =>   4
Atom  33H    basis set group =>   5
Atom  34H    basis set group =>   5
Atom  35C    basis set group =>   4
Atom  36H    basis set group =>   5
Atom  37H    basis set group =>   5
Atom  38C    basis set group =>   4
Atom  39H    basis set group =>   5
Atom  40H    basis set group =>   5
Atom  41C    basis set group =>   4
Atom  42H    basis set group =>   5
Atom  43H    basis set group =>   5
Atom  44C    basis set group =>   4
Atom  45H    basis set group =>   5
Atom  46H    basis set group =>   5
Atom  47C    basis set group =>   4
Atom  48H    basis set group =>   5
Atom  49H    basis set group =>   5
Atom  50H    basis set group =>   5
---------------------------------
AUXILIARY/J BASIS SET INFORMATION
---------------------------------
There are 5 groups of distinct atoms

 Group   1 Type Mn  : 19s5p5d3f3g contracted to 8s5p5d2f3g pattern {121111111/11111/11111/21/111}
 Group   2 Type Cl  : 14s5p5d2f1g contracted to 8s4p3d1f1g pattern {71111111/2111/311/2/1}
 Group   3 Type N   : 12s5p4d2f1g contracted to 6s4p3d1f1g pattern {711111/2111/211/2/1}
 Group   4 Type C   : 12s5p4d2f1g contracted to 6s4p3d1f1g pattern {711111/2111/211/2/1}
 Group   5 Type H   : 5s2p1d contracted to 3s1p1d pattern {311/2/1}

Atom   0Mn   basis set group =>   1
Atom   1Cl   basis set group =>   2
Atom   2Cl   basis set group =>   2
Atom   3N    basis set group =>   3
Atom   4N    basis set group =>   3
Atom   5N    basis set group =>   3
Atom   6N    basis set group =>   3
Atom   7C    basis set group =>   4
Atom   8H    basis set group =>   5
Atom   9H    basis set group =>   5
Atom  10C    basis set group =>   4
Atom  11H    basis set group =>   5
Atom  12H    basis set group =>   5
Atom  13C    basis set group =>   4
Atom  14H    basis set group =>   5
Atom  15H    basis set group =>   5
Atom  16C    basis set group =>   4
Atom  17H    basis set group =>   5
Atom  18H    basis set group =>   5
Atom  19H    basis set group =>   5
Atom  20C    basis set group =>   4
Atom  21H    basis set group =>   5
Atom  22H    basis set group =>   5
Atom  23C    basis set group =>   4
Atom  24H    basis set group =>   5
Atom  25H    basis set group =>   5
Atom  26C    basis set group =>   4
Atom  27H    basis set group =>   5
Atom  28H    basis set group =>   5
Atom  29C    basis set group =>   4
Atom  30H    basis set group =>   5
Atom  31H    basis set group =>   5
Atom  32C    basis set group =>   4
Atom  33H    basis set group =>   5
Atom  34H    basis set group =>   5
Atom  35C    basis set group =>   4
Atom  36H    basis set group =>   5
Atom  37H    basis set group =>   5
Atom  38C    basis set group =>   4
Atom  39H    basis set group =>   5
Atom  40H    basis set group =>   5
Atom  41C    basis set group =>   4
Atom  42H    basis set group =>   5
Atom  43H    basis set group =>   5
Atom  44C    basis set group =>   4
Atom  45H    basis set group =>   5
Atom  46H    basis set group =>   5
Atom  47C    basis set group =>   4
Atom  48H    basis set group =>   5
Atom  49H    basis set group =>   5
Atom  50H    basis set group =>   5


           ************************************************************
           *        Program running with 16 parallel MPI-processes    *
           *              working on a common directory               *
           ************************************************************
------------------------------------------------------------------------------
                             ORCA STARTUP CALCULATIONS
                           -- RI-GTO INTEGRALS CHOSEN --
------------------------------------------------------------------------------
------------------------------------------------------------------------------
                   ___                                                        
                  /   \      - P O W E R E D   B Y -                         
                 /     \                                                     
                 |  |  |   _    _      __       _____    __    __             
                 |  |  |  | |  | |    /  \     |  _  \  |  |  /  |          
                  \  \/   | |  | |   /    \    | | | |  |  | /  /          
                 / \  \   | |__| |  /  /\  \   | |_| |  |  |/  /          
                |  |  |   |  __  | /  /__\  \  |    /   |      \           
                |  |  |   | |  | | |   __   |  |    \   |  |\   \          
                \     /   | |  | | |  |  |  |  | |\  \  |  | \   \       
                 \___/    |_|  |_| |__|  |__|  |_| \__\ |__|  \__/        
                                                                              
                      - O R C A' S   B I G   F R I E N D -                    
                                      &                                       
                       - I N T E G R A L  F E E D E R -                       
                                                                              
 v1 FN, 2020, v2 2021, v3 2022-2024                                           
------------------------------------------------------------------------------


----------------------
SHARK INTEGRAL PACKAGE
----------------------

Number of atoms                             ...     51
Number of basis functions                   ...    857
Number of shells                            ...    359
Maximum angular momentum                    ...      3
Integral batch strategy                     ... SHARK/LIBINT Hybrid
RI-J (if used) integral strategy            ... SPLIT-RIJ (Revised 2003 algorithm where possible)
Printlevel                                  ...      1
Contraction scheme used                     ... SEGMENTED contraction
Prescreening option                         ... SCHWARTZ
   Thresh                                   ... 2.500e-11
   Tcut                                     ... 2.500e-12
   Tpresel                                  ... 2.500e-12 
Coulomb Range Separation                    ... NOT USED
Exchange Range Separation                   ... NOT USED
Multipole approximations                    ... NOT USED
Finite Nucleus Model                        ... NOT USED
CABS basis                                  ... NOT available
Auxiliary Coulomb fitting basis             ... AVAILABLE
   # of basis functions in Aux-J            ...   1403
   # of shells in Aux-J                     ...    477
   Maximum angular momentum in Aux-J        ...      4
Auxiliary J/K fitting basis                 ... NOT available
Auxiliary Correlation fitting basis         ... NOT available
Auxiliary 'external' fitting basis          ... NOT available

Checking pre-screening integrals            ... done (  0.0 sec) Dimension = 359
Check shell pair data                       ... done (  0.0 sec)
Shell pair information
Shell pair cut-off parameter TPreSel        ...   2.5e-12
Total number of shell pairs                 ...     64620
Shell pairs after pre-screening             ...     51548
Total number of primitive shell pairs       ...    199382
Primitive shell pairs kept                  ...    105317
          la=0 lb=0:  15102 shell pairs
          la=1 lb=0:  15180 shell pairs
          la=1 lb=1:   3970 shell pairs
          la=2 lb=0:   7012 shell pairs
          la=2 lb=1:   3630 shell pairs
          la=2 lb=2:    887 shell pairs
          la=3 lb=0:   3133 shell pairs
          la=3 lb=1:   1642 shell pairs
          la=3 lb=2:    798 shell pairs
          la=3 lb=3:    194 shell pairs

Calculating one electron integrals          ... done (  0.0 sec)
done (  0.1 sec)
Calculating Nuclear repulsion               ... done (  0.0 sec) ENN=   3042.073880300398 Eh

Diagonalization of the overlap matrix:
Smallest eigenvalue                        ... 4.418e-05
Time for diagonalization                   ...    0.090 sec
Threshold for overlap eigenvalues          ... 1.000e-07
Number of eigenvalues below threshold      ... 0
Time for construction of square roots      ...    0.059 sec
Total time needed                          ...    0.166 sec

-------------------
DFT GRID GENERATION
-------------------

General Integration Accuracy     IntAcc      ... 4.959
Radial Grid Type                 RadialGrid  ... OptM3 with GC (2021)
Angular Grid (max. ang.)         AngularGrid ... 6 (Lebedev-590)
Angular grid pruning method      GridPruning ... 4 (adaptive)
Weight generation scheme         WeightScheme... mBecke (2022)
Basis function cutoff            BFCut       ... 1.0000e-11
Integration weight cutoff        WCut        ... 1.0000e-14
Partially contracted basis set               ... off
Rotationally invariant grid construction     ... off
Angular grids for H and He will be reduced by one unit
Core-polarized basis detected: some atoms will have their core
                               angular grid increased.

Total number of grid points                  ...   556578
Total number of batches                      ...     8719
Average number of points per batch           ...       63
Average number of grid points per atom       ...    10913

--------------------
COSX GRID GENERATION
--------------------

GRIDX 1
-------
General Integration Accuracy     IntAcc      ... 4.020
Radial Grid Type                 RadialGrid  ... OptM3 with GC (2021)
Angular Grid (max. ang.)         AngularGrid ... 2 (Lebedev-110)
Angular grid pruning method      GridPruning ... 4 (adaptive)
Weight generation scheme         WeightScheme... mBecke (2022)
Basis function cutoff            BFCut       ... 1.0000e-11
Integration weight cutoff        WCut        ... 1.0000e-14
Partially contracted basis set               ... on
Rotationally invariant grid construction     ... off
Angular grids for H and He will be reduced by one unit
Core-polarized basis detected: some atoms will have their core
                               angular grid increased.

Total number of grid points                  ...    60665
Total number of batches                      ...      492
Average number of points per batch           ...      123
Average number of grid points per atom       ...     1190
UseSFitting                                  ... on

GRIDX 2
-------
General Integration Accuracy     IntAcc      ... 4.338
Radial Grid Type                 RadialGrid  ... OptM3 with GC (2021)
Angular Grid (max. ang.)         AngularGrid ... 3 (Lebedev-194)
Angular grid pruning method      GridPruning ... 4 (adaptive)
Weight generation scheme         WeightScheme... mBecke (2022)
Basis function cutoff            BFCut       ... 1.0000e-11
Integration weight cutoff        WCut        ... 1.0000e-14
Partially contracted basis set               ... on
Rotationally invariant grid construction     ... off
Angular grids for H and He will be reduced by one unit
Core-polarized basis detected: some atoms will have their core
                               angular grid increased.

Total number of grid points                  ...   126709
Total number of batches                      ...     1015
Average number of points per batch           ...      124
Average number of grid points per atom       ...     2484
UseSFitting                                  ... on

GRIDX 3
-------
General Integration Accuracy     IntAcc      ... 4.871
Radial Grid Type                 RadialGrid  ... OptM3 with GC (2021)
Angular Grid (max. ang.)         AngularGrid ... 4 (Lebedev-302)
Angular grid pruning method      GridPruning ... 4 (adaptive)
Weight generation scheme         WeightScheme... mBecke (2022)
Basis function cutoff            BFCut       ... 1.0000e-11
Integration weight cutoff        WCut        ... 1.0000e-14
Partially contracted basis set               ... on
Rotationally invariant grid construction     ... off
Angular grids for H and He will be reduced by one unit
Core-polarized basis detected: some atoms will have their core
                               angular grid increased.

Total number of grid points                  ...   243795
Total number of batches                      ...     1925
Average number of points per batch           ...      126
Average number of grid points per atom       ...     4780
UseSFitting                                  ... on
Initializing property integral containers    ... done (  0.0 sec)

SHARK setup successfully completed in   7.2 seconds

Maximum memory used throughout the entire STARTUP-calculation: 187.8 MB


           ************************************************************
           *        Program running with 16 parallel MPI-processes    *
           *              working on a common directory               *
           ************************************************************
-------------------------------------------------------------------------------
                                 ORCA GUESS
                   Start orbitals & Density for SCF / CASSCF
-------------------------------------------------------------------------------

------------
SCF SETTINGS
------------
Hamiltonian:
 Density Functional     Method          .... DFT(GTOs)
 Exchange Functional    Exchange        .... PBE
   PBE kappa parameter   XKappa         ....  0.804000
   PBE mue parameter    XMuePBE         ....  0.219520
 Correlation Functional Correlation     .... PBE
   PBE beta parameter  CBetaPBE         ....  0.066725
 LDA part of GGA corr.  LDAOpt          .... PW91-LDA
 Gradients option       PostSCFGGA      .... off
 Hybrid DFT is turned on
   Fraction HF Exchange ScalHFX         ....  0.250000
   Scaling of DF-GGA-X  ScalDFX         ....  0.750000
   Scaling of DF-GGA-C  ScalDFC         ....  1.000000
   Scaling of DF-LDA-C  ScalLDAC        ....  1.000000
   Perturbative correction              ....  0.000000
   NL short-range parameter             ....  6.900000
 RI-approximation to the Coulomb term is turned on
   Number of AuxJ basis functions       .... 1403
   RIJ-COSX (HFX calculated with COS-X)).... on


General Settings:
 Integral files         IntName         .... HEVCEQ-S6
 Hartree-Fock type      HFTyp           .... UHF
 Total Charge           Charge          ....    0
 Multiplicity           Mult            ....    4
 Number of Electrons    NEL             ....  201
 Basis Dimension        Dim             ....  857
 Nuclear Repulsion      ENuc            ....   3042.0738803004 Eh

Convergence Acceleration:
 AO-DIIS                CNVDIIS         .... on
   Start iteration      DIISMaxIt       ....    12
   Startup error        DIISStart       ....  0.200000
   # of expansion vecs  DIISMaxEq       ....     5
   Bias factor          DIISBfac        ....   1.050
   Max. coefficient     DIISMaxC        ....  10.000
 MO-DIIS                CNVKDIIS        .... off
 Trust-Rad. Augm. Hess. CNVTRAH         .... auto
   Auto Start mean grad. ratio tolernc. ....  1.125000
   Auto Start start iteration           ....    50
   Auto Start num. interpolation iter.  ....    10
   Max. Number of Micro iterations      ....    24
   Max. Number of Macro iterations      .... Maxiter - #DIIS iter
   Number of Davidson start vectors     ....     2
   Converg. threshold    (grad. norm)   ....   1.000e-05
   Grad. Scal. Fac. for Micro threshold ....   0.100
   Minimum threshold for Micro iter.    ....   1.000e-02
   NR start threshold (gradient norm)   ....   1.000e-04
   Initial trust radius                 ....   0.400
   Minimum AH scaling param. (alpha)    ....   1.000
   Maximum AH scaling param. (alpha)    .... 1000.000
   Quad. conv. algorithm                .... NR
   White noise on init. David. guess    .... on
   Maximum white noise                  ....   0.010
   Pseudo random numbers                .... off
   Inactive MOs                         .... canonical
   Orbital update algorithm             .... Taylor
   Preconditioner                       .... Diag
   Full preconditioner red. dimension   ....   250
 SOSCF                  CNVSOSCF        .... on
   Start iteration      SOSCFMaxIt      ....   150
   Startup grad/error   SOSCFStart      ....  0.003300
   Hessian update       SOSCFHessUp     .... L-BFGS
 Level Shifting         CNVShift        .... on
   Level shift para.    LevelShift      ....    0.2500
   Turn off err/grad.   ShiftErr        ....    0.0010
 Zerner damping         CNVZerner       .... off
 Static damping         CNVDamp         .... on
   Fraction old density DampFac         ....    0.7000
   Max. Damping (<1)    DampMax         ....    0.9800
   Min. Damping (>=0)   DampMin         ....    0.0000
   Turn off err/grad.   DampErr         ....    0.1000

SCF Procedure:
 Maximum # iterations   MaxIter         ....   125
 SCF integral mode      SCFMode         .... Direct
   Integral package                     .... SHARK and LIBINT hybrid scheme
 Reset frequency        DirectResetFreq ....    20
 Integral Threshold     Thresh          ....  2.500e-11 Eh
 Primitive CutOff       TCut            ....  2.500e-12 Eh

Convergence Tolerance:
 Convergence Check Mode ConvCheckMode   .... Total+1el-Energy
 Convergence forced     ConvForced      .... 0
 Energy Change          TolE            ....  1.000e-08 Eh
 1-El. energy change                    ....  1.000e-05 Eh
 Orbital Gradient       TolG            ....  1.000e-05
 Orbital Rotation angle TolX            ....  1.000e-05
 DIIS Error             TolErr          ....  5.000e-07

------------------------------
INITIAL GUESS: MODEL POTENTIAL
------------------------------
Loading Hartree-Fock densities                     ... done
Calculating cut-offs                               ... done
Initializing the effective Hamiltonian             ... done
Setting up the integral package (SHARK)            ... done
done (   0.3 sec)
Making the grid                                    ... done (   0.2 sec)
Mapping shells                                     ... done
Starting the XC term evaluation                    ... done (   0.2 sec)
  promolecular density results
     # of electrons  =    200.980206293
     EX              =   -212.928304539
     EC              =     -7.329631092
     EX+EC           =   -220.257935631
Transforming the Hamiltonian                       ... done (   0.1 sec)
done (   0.1 sec)
Back transforming the eigenvectors                 ... done (   0.1 sec)
done
                      ------------------
                      INITIAL GUESS DONE (   1.1 sec)
                      ------------------
             **** ENERGY FILE WAS UPDATED (HEVCEQ-S6.en.tmp) ****
Finished Guess after   1.5 sec
Maximum memory used throughout the entire GUESS-calculation: 89.5 MB


           ************************************************************
           *        Program running with 16 parallel MPI-processes    *
           *              working on a common directory               *
           ************************************************************

-------------------------------------------------------------------------------------------
                                      ORCA LEAN-SCF
                              memory conserving SCF solver
-------------------------------------------------------------------------------------------

----------------------------------------D-I-I-S--------------------------------------------
Iteration    Energy (Eh)           Delta-E    RMSDP     MaxDP     DIISErr   Damp  Time(sec)
-------------------------------------------------------------------------------------------
               ***  Starting incremental Fock matrix formation  ***
    1    -2839.9274216037979386     0.00e+00  4.79e-04  2.97e-02  9.43e-02  0.700  19.4
    2    -2840.1768530378344622    -2.49e-01  4.14e-04  1.90e-02  5.12e-02  0.700  10.0
                               ***Turning on AO-DIIS***
    3    -2840.2983848156495696    -1.22e-01  2.05e-04  9.05e-03  2.25e-02  0.700   9.9
    4    -2840.3707911575061189    -7.24e-02  3.93e-04  2.07e-02  1.31e-02  0.000   8.7
                              *** Initializing SOSCF ***
---------------------------------------S-O-S-C-F--------------------------------------
Iteration    Energy (Eh)           Delta-E    RMSDP     MaxDP     MaxGrad    Time(sec)
--------------------------------------------------------------------------------------
    5    -2840.5274726708798880    -1.57e-01  5.95e-05  3.22e-03  2.83e-03     9.9
               *** Restarting incremental Fock matrix formation ***
    6    -2840.5284637241961718    -9.91e-04  7.95e-05  6.80e-03  4.19e-03    18.8
               *** Scaled step length from 0.374399 to 0.200000 ***
    7    -2840.5295153078882322    -1.05e-03  2.17e-04  2.39e-02  4.61e-03    14.9
               *** Scaled step length from 0.383352 to 0.200000 ***
    8    -2840.5321896278833265    -2.67e-03  1.91e-04  3.22e-02  4.32e-03    15.9
               *** Scaled step length from 0.264940 to 0.200000 ***
    9    -2840.5342239415253971    -2.03e-03  1.92e-04  4.10e-02  4.80e-03    15.3
   10    -2840.5361095397142890    -1.89e-03  1.67e-04  2.38e-02  4.12e-03    15.4
   11    -2840.5375906350022888    -1.48e-03  7.22e-05  7.22e-03  4.53e-03    15.6
   12    -2840.5380845714894349    -4.94e-04  3.36e-05  4.73e-03  1.73e-03    14.4
   13    -2840.5384021411350659    -3.18e-04  5.98e-05  1.13e-02  1.61e-03    13.2
   14    -2840.5387656971383876    -3.64e-04  1.15e-04  2.29e-02  1.55e-03    13.2
   15    -2840.5392346356352391    -4.69e-04  1.42e-04  2.37e-02  2.24e-03    13.2
   16    -2840.5396521140196455    -4.17e-04  1.42e-04  2.42e-02  2.83e-03    13.4
               *** Scaled step length from 0.532636 to 0.200000 ***
   17    -2840.5403094566586333    -6.57e-04  1.73e-04  3.22e-02  4.27e-03    12.8
               *** Scaled step length from 0.643038 to 0.200000 ***
   18    -2840.5412603067193231    -9.51e-04  1.76e-04  3.09e-02  4.93e-03    13.5
   19    -2840.5421871168859980    -9.27e-04  1.37e-04  2.80e-02  7.32e-03    14.8
   20    -2840.5430973064198952    -9.10e-04  1.20e-04  2.32e-02  5.95e-03    14.7
   21    -2840.5440089799972156    -9.12e-04  1.66e-04  3.74e-02  4.25e-03    14.5
   22    -2840.5444168344561149    -4.08e-04  6.37e-05  9.22e-03  6.26e-03    14.6
   23    -2840.5449480629954451    -5.31e-04  3.33e-05  4.46e-03  2.03e-03    13.2
   24    -2840.5451147905073412    -1.67e-04  6.23e-05  1.26e-02  1.05e-03    12.3
   25    -2840.5452776601782716    -1.63e-04  9.03e-05  1.79e-02  1.02e-03    12.8
               *** Restarting incremental Fock matrix formation ***
   26    -2840.5454492032536109    -1.72e-04  1.19e-04  2.47e-02  1.43e-03    18.5
   27    -2840.5455923884296681    -1.43e-04  3.61e-05  6.14e-03  1.21e-03    12.4
   28    -2840.5456642509939229    -7.19e-05  1.26e-05  1.78e-03  6.24e-04    11.6
   29    -2840.5456942626428827    -3.00e-05  1.32e-05  2.17e-03  3.43e-04    12.4
   30    -2840.5457080246055739    -1.38e-05  1.18e-05  1.86e-03  4.03e-04    12.1
   31    -2840.5457184816373228    -1.05e-05  1.94e-05  2.95e-03  3.28e-04    11.6
   32    -2840.5457348833356264    -1.64e-05  1.95e-05  2.78e-03  3.10e-04    12.0
   33    -2840.5457453406174864    -1.05e-05  6.18e-06  9.66e-04  1.65e-04    12.2
   34    -2840.5457482222277577    -2.88e-06  2.84e-06  5.37e-04  1.87e-04    11.1
   35    -2840.5457496389494736    -1.42e-06  5.43e-06  1.31e-03  1.47e-04     9.9
   36    -2840.5457515233051708    -1.88e-06  1.08e-05  2.30e-03  1.27e-04    10.1
   37    -2840.5457545861104336    -3.06e-06  1.62e-05  3.46e-03  1.41e-04    10.7
   38    -2840.5457581188970835    -3.53e-06  1.27e-05  2.72e-03  1.41e-04    11.0
   39    -2840.5457602323481296    -2.11e-06  3.40e-06  8.02e-04  1.02e-04    10.7
   40    -2840.5457608196934416    -5.87e-07  1.65e-06  2.53e-04  4.77e-05     9.3
   41    -2840.5457609516220145    -1.32e-07  1.11e-06  1.57e-04  2.78e-05     7.8
   42    -2840.5457610057605962    -5.41e-08  1.90e-06  2.71e-04  2.69e-05     7.8
   43    -2840.5457610821144954    -7.64e-08  3.71e-06  6.45e-04  2.30e-05     8.3
   44    -2840.5457612114873882    -1.29e-07  1.76e-06  3.40e-04  1.71e-05     8.6
   45    -2840.5457612522427553    -4.08e-08  6.10e-07  7.31e-05  4.95e-06     8.0
               *** Restarting incremental Fock matrix formation ***
   46    -2840.5457612927743867    -4.05e-08  9.11e-07  4.89e-05  1.65e-06    18.6
                  *** Gradient check signals convergence ***

               *****************************************************
               *                     SUCCESS                       *
               *           SCF CONVERGED AFTER  46 CYCLES          *
               *****************************************************

 done (   27.324 sec)
Old exchange energy                            :    -54.369965545 Eh
New exchange energy                            :    -54.369956158 Eh
Exchange energy change after final integration :      0.000009387 Eh
Total energy after final integration           :  -2840.545751905 Eh
             **** ENERGY FILE WAS UPDATED (HEVCEQ-S6.en.tmp) ****

----------------
TOTAL SCF ENERGY
----------------

Total Energy       :      -2840.54575190546348 Eh          -77295.17952 eV

Components:
Nuclear Repulsion  :       3042.07388030039829 Eh           82779.03869 eV
Electronic Energy  :      -5882.61964159317358 Eh         -160074.21846 eV
One Electron Energy:      -9963.91403172681930 Eh         -271131.88488 eV
Two Electron Energy:       4081.29439013364617 Eh          111057.66642 eV

Virial components:
Potential Energy   :      -5680.48615079486262 Eh         -154573.88655 eV
Kinetic Energy     :       2839.94039888939915 Eh           77278.70703 eV
Virial Ratio       :          2.00021315694382

DFT components:
N(Alpha)           :      102.000053018493 electrons
N(Beta)            :       99.000051017533 electrons
N(Total)           :      201.000104036026 electrons
E(X)               :     -162.322146240244 Eh       
E(C)               :       -7.232505442584 Eh       
E(XC)              :     -169.554651682828 Eh       

---------------
SCF CONVERGENCE
---------------

  Last Energy change         ...    4.0532e-08  Tolerance :   1.0000e-08
  Last MAX-Density change    ...    4.8851e-05  Tolerance :   1.0000e-07
  Last RMS-Density change    ...    9.1133e-07  Tolerance :   5.0000e-09
  Last DIIS Error            ...    2.8337e-03  Tolerance :   5.0000e-07
  Last Orbital Gradient      ...    1.6460e-06  Tolerance :   1.0000e-05
  Last Orbital Rotation      ...    1.3806e-04  Tolerance :   1.0000e-05


[...]
122:   1520.06   0.004952   25.03  0.001017  ( 0.004580 -0.031527  0.001318)
123:   2953.82   0.009500   48.01  0.001004  ( 0.020344 -0.010523 -0.021886)
124:   2963.68   0.018350   92.74  0.001932  (-0.039455  0.016579  0.010031)
125:   2972.41   0.009402   47.51  0.000987  (-0.012539 -0.019816  0.020908)
126:   2973.48   0.010282   51.96  0.001079  ( 0.015960  0.002615  0.028592)
127:   2976.12   0.008193   41.41  0.000859  ( 0.010795  0.003479  0.027027)
128:   2981.86   0.012363   62.48  0.001294  (-0.023177  0.027291  0.003442)
129:   2983.34   0.013878   70.14  0.001452  (-0.023623 -0.028188  0.009955)
130:   2990.48   0.022511  113.76  0.002349  ( 0.031635  0.012390  0.034565)
131:   2994.13   0.014111   71.31  0.001471  ( 0.027375 -0.007716  0.025725)
132:   3006.41   0.010092   51.00  0.001048  (-0.008132 -0.031230  0.002473)
133:   3012.63   0.021221  107.24  0.002198  (-0.041761  0.002117 -0.021207)
134:   3013.68   0.009654   48.79  0.001000  (-0.019927 -0.022411 -0.010020)
135:   3048.85   0.005999   30.32  0.000614  ( 0.012021 -0.013454  0.016986)
136:   3049.21   0.008028   40.57  0.000822  (-0.000619 -0.027061 -0.009429)
137:   3075.24   0.003264   16.50  0.000331  ( 0.007266  0.006588 -0.015331)
138:   3076.26   0.002731   13.80  0.000277  ( 0.008533 -0.004996 -0.013389)
139:   3100.31   0.000183    0.92  0.000018  ( 0.001612 -0.000025  0.003974)
140:   3100.54   0.000061    0.31  0.000006  (-0.000046  0.000342  0.002462)
141:   3109.42   0.000149    0.75  0.000015  ( 0.003858  0.000131 -0.000229)
142:   3110.62   0.000262    1.32  0.000026  (-0.000396 -0.004653 -0.002107)
143:   3115.38   0.000673    3.40  0.000067  ( 0.003347  0.001451 -0.007356)
144:   3116.34   0.001538    7.77  0.000154  ( 0.003780  0.003925 -0.011151)
145:   3128.42   0.000412    2.08  0.000041  (-0.002889 -0.002231 -0.005266)
146:   3129.35   0.000130    0.66  0.000013  ( 0.000951  0.001147 -0.003273)
147:   3129.63   0.000518    2.62  0.000052  ( 0.004554 -0.002400  0.005016)
148:   3135.61   0.001048    5.30  0.000104  ( 0.010090  0.001509 -0.000518)
149:   3139.79   0.007526   38.03  0.000748  ( 0.001197 -0.027123 -0.003300)
150:   3154.62   0.003097   15.65  0.000306  ( 0.010048 -0.003821  0.013812)
151:   3171.32   0.000285    1.44  0.000028  ( 0.004599  0.002117 -0.001542)
152:   3177.15   0.000467    2.36  0.000046  ( 0.006124  0.000155 -0.002886)

* The epsilon (eps) is given for a Dirac delta lineshape.
** The dipole moment derivative (T) already includes vibrational overlap.

The first frequency considered to be a vibration is 6
The total number of vibrations considered is 147


--------------------------
THERMOCHEMISTRY AT 298.15K
--------------------------

Temperature         ...   298.15 K
Pressure            ...     1.00 atm
Total Mass          ...   380.27 AMU
Quasi RRHO          ...     True
Cut-Off Frequency   ...     1.00 cm^-1

Throughout the following assumptions are being made:
  (1) The electronic state is orbitally nondegenerate
      but the spin degeneracy is treated
  (2) There are no thermally accessible electronically excited states
  (3) Hindered rotations indicated by low frequency modes are not
      treated as such but are treated as vibrations and this may
      cause some error
  (4) All equations used are the standard statistical mechanics
      equations for an ideal gas
  (5) All vibrations are strictly harmonic

freq.      97.53  E(vib)   ...       0.46 
freq.      98.31  E(vib)   ...       0.46 
freq.     111.69  E(vib)   ...       0.45 
freq.     122.75  E(vib)   ...       0.43 
freq.     137.52  E(vib)   ...       0.42 
freq.     142.33  E(vib)   ...       0.41 
freq.     154.56  E(vib)   ...       0.40 
freq.     158.14  E(vib)   ...       0.39 
freq.     177.62  E(vib)   ...       0.37 
freq.     199.47  E(vib)   ...       0.35 
freq.     202.57  E(vib)   ...       0.35 
freq.     205.64  E(vib)   ...       0.35 
freq.     211.40  E(vib)   ...       0.34 
freq.     218.30  E(vib)   ...       0.33 
freq.     233.84  E(vib)   ...       0.32 
freq.     236.95  E(vib)   ...       0.32 
freq.     256.75  E(vib)   ...       0.30 
freq.     268.45  E(vib)   ...       0.29 
freq.     270.80  E(vib)   ...       0.29 
freq.     289.72  E(vib)   ...       0.27 
freq.     300.22  E(vib)   ...       0.26 
freq.     310.86  E(vib)   ...       0.26 
freq.     334.98  E(vib)   ...       0.24 
freq.     345.46  E(vib)   ...       0.23 
freq.     356.05  E(vib)   ...       0.22 
freq.     362.88  E(vib)   ...       0.22 
freq.     383.70  E(vib)   ...       0.20 
freq.     386.43  E(vib)   ...       0.20 
freq.     400.78  E(vib)   ...       0.19 
freq.     421.15  E(vib)   ...       0.18 
freq.     425.23  E(vib)   ...       0.18 
freq.     448.66  E(vib)   ...       0.17 
freq.     465.03  E(vib)   ...       0.16 
freq.     480.12  E(vib)   ...       0.15 
freq.     488.14  E(vib)   ...       0.15 
freq.     539.10  E(vib)   ...       0.12 
freq.     547.69  E(vib)   ...       0.12 
freq.     552.98  E(vib)   ...       0.12 
freq.     589.01  E(vib)   ...       0.10 
freq.     615.86  E(vib)   ...       0.10 
freq.     755.39  E(vib)   ...       0.06 
freq.     763.15  E(vib)   ...       0.06 
freq.     772.84  E(vib)   ...       0.05 
freq.     777.58  E(vib)   ...       0.05 
freq.     866.17  E(vib)   ...       0.04 
freq.     875.15  E(vib)   ...       0.04 
freq.     887.40  E(vib)   ...       0.04 
freq.     899.57  E(vib)   ...       0.03 
freq.     916.09  E(vib)   ...       0.03 
freq.     925.78  E(vib)   ...       0.03 
freq.     934.77  E(vib)   ...       0.03 
freq.     951.01  E(vib)   ...       0.03 
freq.     976.61  E(vib)   ...       0.03 
freq.     982.92  E(vib)   ...       0.02 
freq.    1005.16  E(vib)   ...       0.02 
freq.    1012.08  E(vib)   ...       0.02 
freq.    1032.74  E(vib)   ...       0.02 
freq.    1037.07  E(vib)   ...       0.02 
freq.    1065.40  E(vib)   ...       0.02 
freq.    1070.89  E(vib)   ...       0.02 
freq.    1080.46  E(vib)   ...       0.02 
freq.    1097.63  E(vib)   ...       0.02 
freq.    1108.26  E(vib)   ...       0.02 
freq.    1118.76  E(vib)   ...       0.01 
freq.    1121.38  E(vib)   ...       0.01 
freq.    1127.74  E(vib)   ...       0.01 
freq.    1145.35  E(vib)   ...       0.01 
freq.    1150.82  E(vib)   ...       0.01 
freq.    1160.37  E(vib)   ...       0.01 
freq.    1177.66  E(vib)   ...       0.01 
freq.    1183.57  E(vib)   ...       0.01 
freq.    1218.94  E(vib)   ...       0.01 
freq.    1221.38  E(vib)   ...       0.01 
freq.    1224.67  E(vib)   ...       0.01 
freq.    1253.47  E(vib)   ...       0.01 
freq.    1268.97  E(vib)   ...       0.01 
freq.    1274.98  E(vib)   ...       0.01 
freq.    1288.51  E(vib)   ...       0.01 
freq.    1291.24  E(vib)   ...       0.01 
freq.    1292.51  E(vib)   ...       0.01 
freq.    1304.12  E(vib)   ...       0.01 
freq.    1316.75  E(vib)   ...       0.01 
freq.    1323.78  E(vib)   ...       0.01 
freq.    1331.01  E(vib)   ...       0.01 
freq.    1344.69  E(vib)   ...       0.01 
freq.    1358.99  E(vib)   ...       0.01 
freq.    1367.12  E(vib)   ...       0.01 
freq.    1375.86  E(vib)   ...       0.01 
freq.    1379.18  E(vib)   ...       0.01 
freq.    1389.90  E(vib)   ...       0.00 
freq.    1392.07  E(vib)   ...       0.00 
freq.    1400.83  E(vib)   ...       0.00 
freq.    1406.18  E(vib)   ...       0.00 
freq.    1418.19  E(vib)   ...       0.00 
freq.    1419.95  E(vib)   ...       0.00 
freq.    1429.60  E(vib)   ...       0.00 
freq.    1432.61  E(vib)   ...       0.00 
freq.    1447.23  E(vib)   ...       0.00 
freq.    1452.40  E(vib)   ...       0.00 
freq.    1456.10  E(vib)   ...       0.00 
freq.    1461.86  E(vib)   ...       0.00 
freq.    1462.24  E(vib)   ...       0.00 
freq.    1466.73  E(vib)   ...       0.00 
freq.    1470.97  E(vib)   ...       0.00 
freq.    1471.58  E(vib)   ...       0.00 
freq.    1474.30  E(vib)   ...       0.00 
freq.    1474.94  E(vib)   ...       0.00 
freq.    1479.10  E(vib)   ...       0.00 
freq.    1480.66  E(vib)   ...       0.00 
freq.    1483.49  E(vib)   ...       0.00 
freq.    1484.11  E(vib)   ...       0.00 
freq.    1489.41  E(vib)   ...       0.00 
freq.    1491.55  E(vib)   ...       0.00 
freq.    1496.55  E(vib)   ...       0.00 
freq.    1499.42  E(vib)   ...       0.00 
freq.    1510.00  E(vib)   ...       0.00 
freq.    1520.06  E(vib)   ...       0.00 
freq.    2953.82  E(vib)   ...       0.00 
freq.    2963.68  E(vib)   ...       0.00 
freq.    2972.41  E(vib)   ...       0.00 
freq.    2973.48  E(vib)   ...       0.00 
freq.    2976.12  E(vib)   ...       0.00 
freq.    2981.86  E(vib)   ...       0.00 
freq.    2983.34  E(vib)   ...       0.00 
freq.    2990.48  E(vib)   ...       0.00 
freq.    2994.13  E(vib)   ...       0.00 
freq.    3006.41  E(vib)   ...       0.00 
freq.    3012.63  E(vib)   ...       0.00 
freq.    3013.68  E(vib)   ...       0.00 
freq.    3048.85  E(vib)   ...       0.00 
freq.    3049.21  E(vib)   ...       0.00 
freq.    3075.24  E(vib)   ...       0.00 
freq.    3076.26  E(vib)   ...       0.00 
freq.    3100.31  E(vib)   ...       0.00 
freq.    3100.54  E(vib)   ...       0.00 
freq.    3109.42  E(vib)   ...       0.00 
freq.    3110.62  E(vib)   ...       0.00 
freq.    3115.38  E(vib)   ...       0.00 
freq.    3116.34  E(vib)   ...       0.00 
freq.    3128.42  E(vib)   ...       0.00 
freq.    3129.35  E(vib)   ...       0.00 
freq.    3129.63  E(vib)   ...       0.00 
freq.    3135.61  E(vib)   ...       0.00 
freq.    3139.79  E(vib)   ...       0.00 
freq.    3154.62  E(vib)   ...       0.00 
freq.    3171.32  E(vib)   ...       0.00 
freq.    3177.15  E(vib)   ...       0.00 

------------
INNER ENERGY
------------

The inner energy is: U= E(el) + E(ZPE) + E(vib) + E(rot) + E(trans)
    E(el)   - is the total energy from the electronic structure calculation
              = E(kin-el) + E(nuc-el) + E(el-el) + E(nuc-nuc)
    E(ZPE)  - the the zero temperature vibrational energy from the frequency calculation
    E(vib)  - the the finite temperature correction to E(ZPE) due to population
              of excited vibrational states
    E(rot)  - is the rotational thermal energy
    E(trans)- is the translational thermal energy

Summary of contributions to the inner energy U:
Electronic energy                ...  -2840.93037307 Eh
Zero point energy                ...      0.45498815 Eh     285.51 kcal/mol
Thermal vibrational correction   ...      0.01900164 Eh      11.92 kcal/mol
Thermal rotational correction    ...      0.00141627 Eh       0.89 kcal/mol
Thermal translational correction ...      0.00141627 Eh       0.89 kcal/mol
-----------------------------------------------------------------------
Total thermal energy                  -2840.45355073 Eh


Summary of corrections to the electronic energy:
(perhaps to be used in another calculation)
Total thermal correction                  0.02183419 Eh      13.70 kcal/mol
Non-thermal (ZPE) correction              0.45498815 Eh     285.51 kcal/mol
-----------------------------------------------------------------------
Total correction                          0.47682234 Eh     299.21 kcal/mol


--------
ENTHALPY
--------

The enthalpy is H = U + kB*T
                kB is Boltzmann's constant
Total thermal energy              ...  -2840.45355073 Eh 
Thermal Enthalpy correction       ...      0.00094421 Eh       0.59 kcal/mol
-----------------------------------------------------------------------
Total Enthalpy                    ...  -2840.45260652 Eh


Note: Only C1 symmetry has been detected, increase convergence thresholds 
      if your molecule has a higher symmetry. Symmetry factor of 1.0 is   
      used for the rotational entropy correction. 
 

Note: Rotational entropy computed according to Herzberg 
Infrared and Raman Spectra, Chapter V,1, Van Nostrand Reinhold, 1945 
Point Group:  C1, Symmetry Number:   1  
Rotational constants in cm-1:     0.010706     0.008940     0.008711 

Vibrational entropy computed according to the QRRHO of S. Grimme
Chem.Eur.J. 2012 18 9955 using a reference frequency of 100.0 cm-1


-------
ENTROPY
-------

The entropy contributions are T*S = T*(S(el)+S(vib)+S(rot)+S(trans))
     S(el)   - electronic entropy
     S(vib)  - vibrational entropy
     S(rot)  - rotational entropy
     S(trans)- translational entropy
The entropies will be listed as multiplied by the temperature to get
units of energy

Electronic entropy                ...      0.00130891 Eh      0.82 kcal/mol
Vibrational entropy               ...      0.03215422 Eh     20.18 kcal/mol
Rotational entropy                ...      0.01611882 Eh     10.11 kcal/mol
Translational entropy             ...      0.02076296 Eh     13.03 kcal/mol
-----------------------------------------------------------------------
Final entropy term                ...      0.07034491 Eh     44.14 kcal/mol

In case the symmetry of your molecule has not been determined correctly
or in case you have a reason to use a different symmetry number we print 
out the resulting rotational entropy values for sn=1,12:

 non-linear molecules -----------------------------------
|  sn= 1 | S(rot)=       0.01611882 Eh     10.11 kcal/mol|
|  sn= 2 | S(rot)=       0.01546436 Eh      9.70 kcal/mol|
|  sn= 3 | S(rot)=       0.01508153 Eh      9.46 kcal/mol|
|  sn= 4 | S(rot)=       0.01480990 Eh      9.29 kcal/mol|
|  sn= 5 | S(rot)=       0.01459922 Eh      9.16 kcal/mol|
|  sn= 6 | S(rot)=       0.01442707 Eh      9.05 kcal/mol|
|  sn= 7 | S(rot)=       0.01428152 Eh      8.96 kcal/mol|
|  sn= 8 | S(rot)=       0.01415545 Eh      8.88 kcal/mol|
|  sn= 9 | S(rot)=       0.01404424 Eh      8.81 kcal/mol|
|  sn=10 | S(rot)=       0.01394476 Eh      8.75 kcal/mol|
|  sn=11 | S(rot)=       0.01385477 Eh      8.69 kcal/mol|
|  sn=12 | S(rot)=       0.01377261 Eh      8.64 kcal/mol|
 linear molecules ---------------------------------------
|  Dinfh | S(rot)=       0.00980421 Eh      6.15 kcal/mol|
|  Cinfv | S(rot)=       0.01045866 Eh      6.56 kcal/mol|
 --------------------------------------------------------


-------------------
GIBBS FREE ENERGY
-------------------

The Gibbs free energy is G = H - T*S

Total enthalpy                    ...  -2840.45260652 Eh 
Total entropy correction          ...     -0.07034491 Eh    -44.14 kcal/mol
-----------------------------------------------------------------------
Final Gibbs free energy         ...  -2840.52295143 Eh

For completeness - the Gibbs free energy minus the electronic energy
G-E(el)                           ...      0.40742164 Eh    255.66 kcal/mol


Maximum memory used throughout the entire PROP-calculation: 1227.9 MB

--------------------------------
SUGGESTED CITATIONS FOR THIS RUN
--------------------------------

Below you find a list of papers that are relevant to this ORCA run
We neither can nor want to force you to cite these papers, but we appreciate if you do
You receive ORCA, which is the product of decades of hard work by many enthusiastic individuals, for free
The only thing we kindly ask in return is that you cite our papers,
We deeply appreciate it, if you show your appreciation for ORCA by not just citing the generic ORCA reference.

Please note that relegating all ORCA citations to the supporting information does *not* help us.
SI sections are not indexed - citations you put there will not count into any citation statistics
But we need these citations in order to attract the funding resources that allow us to do what we are doing

Therefore, if you are a happy ORCA user, please consider citing a few of the papers listed below in the main body of your paper

In addition to the list printed below, the program has created the file HEVCEQ-S6.bibtex that contains the list in bibtex format
You can import this file easily into all common literature databanks and citation aid programs


List of essential papers. We consider these as the minimum necessary citations

  1. Neese,F.
     Software update: the ORCA program system, version 5.0
     WIRES Comput. Molec. Sci., 2022 12(1)e1606
     doi.org/10.1002/wcms.1606

List of papers to cite with high priority. The work reported in these papers was absolutely
necessary for this run to complete.
Our perspective: the developers of density functionals and basis sets usually get cited in chemistry papers
Good! But without the algorithms to do something with them, the functionals or basis sets would not do anything.
Hence, in our opinion, the algorithm design and method developments papers are equally worthy of getting cited

  1. Neese,F.
     An improvement of the resolution of the identity approximation for the formation of the Coulomb matrix
     J. Comp. Chem., 2003 24(14)1740-1747
     doi.org/10.1002/jcc.10318
  2. Neese,F.; Wennmohs,F.; Hansen,A.; Becker,U.
     Efficient, approximate and parallel Hartree-Fock and hybrid DFT calculations. A 'chain-of-spheres' algorithm for the Hartree-Fock exchange
     Chem. Phys., 2009 356(1-3)98-109
     doi.org/10.1016/j.chemphys.2008.10.036
  3. Bykov,D.; Petrenko,T.; Izsak,R.; Kossmann,S.; Becker,U.; Valeev,E.; Neese,F.
     Efficient implementation of the analytic second derivatives of Hartree-Fock and hybrid DFT energies: a detailed analysis of different approximations
     Molec. Phys., 2015 113 1961-1977
     doi.org/10.1080/00268976.2015.1025114
  4. Helmich-Paris,B.; de Souza,B.; Neese,F.; Izsák,R.
     An improved chain of spheres for exchange algorithm
     J. Chem. Phys., 2021 155 104109
     doi.org/doi: 10.1063/5.0058766.
  5. Neese,F.
     The SHARK Integral Generation and Digestion System
     J. Comp. Chem., 2022  1-16
     doi.org/10.1002/jcc.26942

List of suggested additional citations. These are papers that are important in the 'surrounding' of 
of this run, or papers that preceded the highly important papers. If you like your results we are grateful for a citation.

  1. Izsak,R.; Neese,F.
     An overlap fitted chain of spheres exchange method
     J. Chem. Phys., 2011 135 144105
     doi.org/10.1063/1.3646921
  2. Izsak,R.; Hansen,A.; Neese,F.
     The resolution of identity and chain of spheres approximations for the LPNO-CCSD singles Fock term
     Molec. Phys., 2012 110 2413-2417
     doi.org/10.1080/00268976.2012.687466
  3. Neese,F.
     The ORCA program system
     WIRES Comput. Molec. Sci., 2012 2(1)73-78
     doi.org/10.1002/wcms.81
  4. Izsak,R.; Neese,F.; Klopper,W.
     Robust fitting techniques in the chain of spheres approximation to the Fock exchange: The role of the complementary space
     J. Chem. Phys., 2013 139 
     doi.org/10.1063/1.4819264
  5. Neese,F.
     Software update: the ORCA program system, version 4.0
     WIRES Comput. Molec. Sci., 2018 8(1)1-6
     doi.org/10.1002/wcms.1327
  6. Neese,F.; Wennmohs,F.; Becker,U.; Riplinger,C.
     The ORCA quantum chemistry program package
     J. Chem. Phys., 2020 152 Art. No. L224108
     doi.org/10.1063/5.0004608

List of optional additional citations

  1. Neese,F.
     Approximate second-order SCF convergence for spin unrestricted wavefunctions
     Chem. Phys. Lett., 2000 325(1-3)93-98
     doi.org/10.1016/s0009-2614(00)00662-x

Timings for individual modules:

Sum of individual times          ...    12760.118 sec (= 212.669 min)
Startup calculation              ...      116.298 sec (=   1.938 min)   0.9 %
SCF iterations                   ...     3396.356 sec (=  56.606 min)  26.6 %
Property integrals               ...     3196.235 sec (=  53.271 min)  25.0 %
SCF Response                     ...     4516.080 sec (=  75.268 min)  35.4 %
Property calculations            ...      838.479 sec (=  13.975 min)   6.6 %
SCF Gradient evaluation          ...      696.208 sec (=  11.603 min)   5.5 %
Geometry relaxation              ...        0.463 sec (=   0.008 min)   0.0 %
                             ****ORCA TERMINATED NORMALLY****
TOTAL RUN TIME: 0 days 3 hours 32 minutes 59 seconds 508 msec
