
                                 *****************
                                 * O   R   C   A *
                                 *****************

                                            #,                                       
                                            ###                                      
                                            ####                                     
                                            #####                                    
                                            ######                                   
                                           ########,                                 
                                     ,,################,,,,,                         
                               ,,#################################,,                 
                          ,,##########################################,,             
                       ,#########################################, ''#####,          
                    ,#############################################,,   '####,        
                  ,##################################################,,,,####,       
                ,###########''''           ''''###############################       
              ,#####''   ,,,,##########,,,,          '''####'''          '####       
            ,##' ,,,,###########################,,,                        '##       
           ' ,,###''''                  '''############,,,                           
         ,,##''                                '''############,,,,        ,,,,,,###''
      ,#''                                            '''#######################'''  
     '                                                          ''''####''''         
             ,#######,   #######,   ,#######,      ##                                
            ,#'     '#,  ##    ##  ,#'     '#,    #''#        ,####,   ,####,        
            ##       ##  ##   ,#'  ##            #'  '#       #'       #'  '#        
            ##       ##  #######   ##           ,######,      #####,   #    #        
            '#,     ,#'  ##    ##  '#,     ,#' ,#      #,     #,   #   #,  ,#        
             '#######'   ##     ##  '#######'  #'      '#     '####' # '####'        



                #########################################################
                #                        -***-                          #
                #          Department of theory and spectroscopy        #
                #                                                       #
                #                      Frank Neese                      #
                #                                                       #
                #     Directorship, Architecture, Infrastructure        #
                #                    SHARK, DRIVERS                     #
                #        Core code/Algorithms in most modules           #
                #                                                       #
                #        Max Planck Institute fuer Kohlenforschung      #
                #                Kaiser Wilhelm Platz 1                 #
                #                 D-45470 Muelheim/Ruhr                 #
                #                      Germany                          #
                #                                                       #
                #                  All rights reserved                  #
                #                        -***-                          #
                #########################################################


                         Program Version 6.0.1  -  RELEASE   -


 With contributions from (in alphabetic order):
[Max-Planck-Institut fuer Kohlenforschung]                               
  Daniel Aravena         : Magnetic Suceptibility                        
  Michael Atanasov       : Ab Initio Ligand Field Theory (pilot matlab implementation)
  Alexander A. Auer      : GIAO ZORA, VPT2 properties, NMR spectrum      
  Ute Becker             : All parallelization in ORCA, NUMFREQ, NUMCALC 
  Giovanni Bistoni       : ED, misc. LED, open-shell LED, HFLD           
  Martin Brehm           : Molecular dynamics                            
  Dmytro Bykov           : pre 5.0 version of the SCF Hessian            
  Marcos Casanova-Páez   : Triplet and SCS-CIS(D). UHF-(DLPNO)-IP/EA/STEOM-CCSD. UHF-CVS-IP/STEOM-CCSD   
  Vijay G. Chilkuri      : MRCI spin determinant printing, contributions to CSF-ICE 
  Pauline Colinet        : FMM embedding                                 
  Dipayan Datta          : RHF DLPNO-CCSD density                        
  Achintya Kumar Dutta   : EOM-CC, STEOM-CC                              
  Nicolas Foglia         : Exact transition moments, OPA infrastructure, MCD improvements    
  Dmitry Ganyushin       : Spin-Orbit,Spin-Spin,Magnetic field MRCI      
  Miquel Garcia-Rates    : C-PCM and meta-GGA Hessian, CCSD/C-PCM, Gaussian charge scheme 
  Tiago L. C. Gouveia    : GS-ROHF, GS-ROCIS                             
  Yang Guo               : DLPNO-NEVPT2, F12-NEVPT2, CIM, IAO-localization        
  Andreas Hansen         : Spin unrestricted coupled pair/coupled cluster methods 
  Ingolf Harden          : AUTO-CI MPn and infrastructure                
  Benjamin Helmich-Paris : MC-RPA, TRAH-(SCF,CASSCF), AVAS, COSX integrals, SCF dyn. polar. 
  Lee Huntington         : MR-EOM, pCC                                   
  Robert Izsak           : Overlap fitted RIJCOSX, COSX-SCS-MP3, EOM     
  Riya Kayal             : Wick's Theorem for AUTO-CI, AUTO-CI UHF-CCSDT 
  Emily Kempfer          : AUTO-CI, RHF CISDT and CCSDT                  
  Christian Kollmar      : KDIIS, OOCD, Brueckner-CCSD(T), CCSD density, CASPT2, CASPT2-K, improved NEVPT2 
  Axel Koslowski         : Symmetry handling                             
  Simone Kossmann        : meta-GGA functionals, TD-DFT gradient, OOMP2, (MP2 Hessian; deprecated post 5.0) 
  Lucas Lang             : DCDCAS                                        
  Marvin Lechner         : AUTO-CI (C++ implementation), FIC-MRCC        
  Spencer Leger          : CASSCF response                               
  Dagmar Lenk            : GEPOL surface, SMD, ORCA-2-JSON               
  Dimitrios Liakos       : Extrapolation schemes; Compound Job, initial MDCI parallelization 
  Dimitrios Manganas     : Further ROCIS development; embedding schemes. LFT, Crystal Embedding 
  Dimitrios Pantazis     : SARC Basis sets                               
  Anastasios Papadopoulos: AUTO-CI, single reference methods and gradients 
  Taras Petrenko         : pre 6.0 DFT Hessian and TD-DFT gradient, (ASA, deprecated), ECA, 1-Electron XAS/XES, NRVS 
  Peter Pinski           : DLPNO-MP2, DLPNO-MP2 Gradient                 
  Christoph Reimann      : Effective Core Potentials                     
  Marius Retegan         : Local ZFS, SOC                                
  Christoph Riplinger    : Optimizer, TS searches, QM/MM, DLPNO-CCSD(T), (RO)-DLPNO pert. Triples 
  Michael Roemelt        : Original ROCIS implementation                 
  Masaaki Saitow         : Open-shell DLPNO-CCSD energy and density      
  Barbara Sandhoefer     : DKH picture change effects                    
  Kantharuban Sivalingam : CASSCF convergence/infrastructure, NEVPT2 and variants, FIC-MRCI 
  Bernardo de Souza      : ESD, SOC TD-DFT                               
  Georgi L. Stoychev     : AutoAux, RI-MP2 NMR, DLPNO-MP2 response, X2C  
  Van Anh Tran           : RI-MP2 g-tensors                              
  Willem Van den Heuvel  : Paramagnetic NMR                              
  Zikuan Wang            : NOTCH, Electric field optimization            
  Frank Wennmohs         : Technical directorship and infrastructure     
  Hang Xu                : AUTO-CI-Response properties                   
                                                                         
[FACCTs GmbH]                                                            
  Markus Bursch, Miquel Garcia-Rates, Christoph Riplinger, Bernardo de Souza, Georgi L. Stoychev 
                                                                 
  APM, Basis sets (HGBS, AHGBS, def-TZVP (Ac-Lr), def2-XVPD (La-Lu)), CI-OPT, improved COSX, DLPNO-Multilevel,           
  DOCKER, DRACO, updates on ESD, GOAT, IRC, LR-CPCM, MBIS, meta-GGA TD-DFT gradient, ML-optimized integration grids, 
  MM, NACMEs, nearIR, NEB, NEB-TS, NL-DFT gradient (VV10), 2- and 3-layer-ONIOM, interface openCOSMO-RS, QMMM,   
  Crystal-QMMM, SF, symmetry and pop. for TD-DFT, r2SCAN hybrids, SOLVATOR                                   
                                                                         
[Other institutions]                                                     
  V. Asgeirsson          : NEB                                           
  Christoph Bannwarth    : sTDA-DFT, sTD-DFT, PBEh-3c, B97-3c, D3        
  Sebastian Ehlert       : rSCAN, r2SCAN, r2SCAN-3c, D4, dhf basis sets  
  Marvin Friede          : D4 for Fr, Ra, Ac-Lr                          
  Lars Goerigk           : TD-DFT with DH, B97 family of functionals     
  Stefan Grimme          : VdW corrections, initial TS optimization, DFT functionals, gCP, sTDA/sTD-DF 
  Waldemar Hujo          : DFT-NL                                        
  H. Jonsson             : NEB                                           
  Holger Kruse           : gCP                                           
  Marcel Mueller         : wB97X-3c, vDZP basis set                      
  Hagen Neugebauer       : wr2SCAN                                       
  Tobias Risthaus        : range-separated hybrid DFT                    
  Lukas Wittmann         : regularized MP2, r2SCAN double-hybrids, wr2SCAN        
                                                                         
We gratefully acknowledge several colleagues who have allowed us to      
interface, adapt or use parts of their codes:                            
  Ed Valeev, F. Pavosevic, A. Kumar             : LibInt (2-el integral package), F12 methods 
  Garnet Chan, S. Sharma, J. Yang, R. Olivares  : DMRG                   
  Ulf Ekstrom                                   : XCFun DFT Library      
  Mihaly Kallay                                 : mrcc  (arbitrary order and MRCC methods)
  Frank Weinhold                                : gennbo (NPA and NBO analysis)           
  Simon Mueller                                 : openCOSMO-RS                            
  Christopher J. Cramer and Donald G. Truhlar   : smd solvation model                     
  S Lehtola, MJT Oliveira, MAL Marques          : LibXC Library                           
  Liviu Ungur et al                             : ANISO software                          


 Your calculation uses the libint2 library for the computation of 2-el integrals
 For citations please refer to: http://libint.valeyev.net

 Your ORCA version has been built with support for libXC version: 6.2.2
 For citations please refer to: https://libxc.gitlab.io

 This ORCA versions uses:
   CBLAS   interface :  Fast vector & matrix operations
   LAPACKE interface :  Fast linear algebra routines
   SCALAPACK package :  Parallel linear algebra routines
   Shared memory     :  Shared parallel matrices
   BLAS/LAPACK       :  OpenBLAS 0.3.27  USE64BITINT DYNAMIC_ARCH NO_AFFINITY Cooperlake SINGLE_THREADED
        Core in use  :  Cooperlake
   Copyright (c) 2011-2014, The OpenBLAS Project


NOTE: MaxCore=3600 MB was set to SCF,MP2,MDCI,CIPSI,MRCI and CIS
      => If you want to overwrite this, your respective input block should be placed after the MaxCore statement
Warning: RI is on but no J-basis has been assigned. Assigning Def2/J (nothing to worry about!)
================================================================================

----- Orbital basis set information -----
Your calculation utilizes the basis: def2-TZVP
   F. Weigend and R. Ahlrichs, Phys. Chem. Chem. Phys. 7, 3297 (2005).

----- AuxJ basis set information -----
Your calculation utilizes the auxiliary basis: def2/J
   F. Weigend, Phys. Chem. Chem. Phys. 8, 1057 (2006).

================================================================================
                                        WARNINGS
                       Please study these warnings very carefully!
================================================================================


WARNING: your system is open-shell and RHF/RKS was chosen
  ===> : WILL SWITCH to UHF/UKS


WARNING: Geometry Optimization
  ===> : Switching off AutoStart
         For restart on a previous wavefunction, please use MOREAD

================================================================================
                                       INPUT FILE
================================================================================
NAME = KASNUQ-S6.inp
|  1> ! PBE0 def2-TZVP  Opt Freq DEFGRID3
|  2> 
|  3> %maxcore 3600
|  4> 
|  5> %pal
|  6>     nprocs 16
|  7> end
|  8> 
|  9> *xyz 0 4
| 10> C 0.4236 10.5221 12.2799
| 11> H 0.7103 10.3687 11.4088
| 12> N 1.1962 5.3399 10.7283
| 13> C 0.9647 4.144 10.1808
| 14> H 1.6989 3.6227 9.9509
| 15> C -0.2735 3.6424 9.9388
| 16> H -0.3775 2.7926 9.5729
| 17> C -1.3564 4.4003 10.2443
| 18> H -2.2135 4.087 10.0674
| 19> C -1.1697 5.6509 10.822
| 20> H -1.8996 6.1788 11.0549
| 21> C 0.1139 6.0999 11.0413
| 22> N 4.8866 6.8577 12.7441
| 23> C 5.6025 7.9704 12.5475
| 24> H 5.3585 8.5355 11.8504
| 25> C 6.6751 8.3186 13.3249
| 26> H 7.1373 9.1115 13.1676
| 27> C 7.0553 7.4754 14.3411
| 28> H 7.7898 7.6791 14.8735
| 29> C 6.336 6.3255 14.5574
| 30> H 6.5797 5.7429 15.2394
| 31> C 5.245 6.0408 13.7528
| 32> Br 3.3572 7.9053 9.5316
| 33> Br 4.5767 4.2404 10.3332
| 34> Mn 3.1627 6.1306 11.4549
| 35> O 3.7449 0.173 16.5204
| 36> H 4.3719 0.1818 15.9926
| 37> O 1.1184 9.3108 15.6084
| 38> H 0.7786 9.5386 16.3192
| 39> N 1.5392 7.3768 12.5838
| 40> N 3.0233 5.0201 13.5169
| 41> C 1.1375 6.6015 13.7831
| 42> H 0.5054 5.9137 13.526
| 43> H 0.6983 7.1928 14.4167
| 44> C 2.3573 5.9532 14.4515
| 45> H 2.984 6.6431 14.7222
| 46> H 2.0756 5.4735 15.244
| 47> C 2.2835 3.7169 13.4247
| 48> H 2.7322 3.1649 12.7638
| 49> H 1.3936 3.9009 13.0874
| 50> C 2.1417 2.9021 14.6874
| 51> C 1.0518 3.0401 15.5147
| 52> O 0.0711 3.9644 15.1563
| 53> H -0.523 3.9666 15.7219
| 54> C 0.8612 2.2363 16.6534
| 55> H 0.0943 2.3348 17.1706
| 56> C 1.7774 1.3361 16.9892
| 57> H 1.6723 0.8411 17.7695
| 58> C 2.8759 1.1324 16.1952
| 59> C 3.0753 1.9406 15.0065
| 60> H 3.823 1.8092 14.4667
| 61> C 4.4073 4.812 13.957
| 62> H 4.7938 4.0739 13.4595
| 63> H 4.4112 4.5733 14.8977
| 64> C 2.0236 8.7545 12.9634
| 65> H 2.6146 8.6669 13.7271
| 66> H 2.5529 9.1006 12.2269
| 67> C 0.9766 9.773 13.3007
| 68> C -0.5094 11.4595 12.4946
| 69> C -0.9774 11.6829 13.7755
| 70> H -1.6493 12.3071 13.9298
| 71> C -0.4295 10.9645 14.8251
| 72> H -0.7159 11.1244 15.6946
| 73> C 0.5444 10.0052 14.5861
| 74> C 0.4198 7.4447 11.6266
| 75> H 0.6454 8.0624 10.9128
| 76> H -0.3686 7.7842 12.0787
| 77> O -1.0151 12.191 11.4345
| 78> H -1.762 12.4692 11.6266
| 79> *
| 80> 
| 81>                          ****END OF INPUT****
================================================================================

                       *****************************
                       * Geometry Optimization Run *
                       *****************************

Geometry optimization settings:
Update method            Update   .... BFGS
Choice of coordinates    CoordSys .... (2022) Redundant Internals
Initial Hessian          InHess   .... Almloef's Model
Max. no of cycles        MaxIter  .... 207

Convergence Tolerances:
Energy Change            TolE     ....  5.0000e-06 Eh
Max. Gradient            TolMAXG  ....  3.0000e-04 Eh/bohr
RMS Gradient             TolRMSG  ....  1.0000e-04 Eh/bohr
Max. Displacement        TolMAXD  ....  4.0000e-03 bohr
RMS Displacement         TolRMSD  ....  2.0000e-03 bohr
Strict Convergence                .... False

------------------------------------------------------------------------------
                        ORCA OPTIMIZATION COORDINATE SETUP
------------------------------------------------------------------------------

The optimization will be done in redundant internal coordinates (2022)
Making redundant internal coordinates   ...  (2022 redundants) done
Evaluating the initial hessian          ...  (Almloef) done
Evaluating the coordinates              ...  done
Calculating the B-matrix                .... done
Calculating the G-matrix                .... done
Diagonalizing the G-matrix              .... done
Small eigenvalue found = 1.661e-03
Small eigenvalue found = 2.873e-03
Small eigenvalue found = 2.938e-03
Small eigenvalue found = 5.849e-03
Small eigenvalue found = 1.128e-02
Small eigenvalue found = 1.333e-02
Small eigenvalue found = 1.567e-02
Small eigenvalue found = 1.800e-02
Small eigenvalue found = 2.573e-02
The first mode is                       ....  209
The number of degrees of freedom        ....  201

    -----------------------------------------------------------------
                    Redundant Internal Coordinates


    -----------------------------------------------------------------
         Definition                    Initial Value    Approx d2E/dq
    -----------------------------------------------------------------
      1. B(H   1,C   0)                  0.9298         0.648632   
      2. B(C   3,N   2)                  1.3355         0.683672   
      3. B(H   4,C   3)                  0.9293         0.649769   
      4. B(C   5,C   3)                  1.3577         0.703553   
      5. B(H   6,C   5)                  0.9311         0.645675   
      6. B(C   7,C   5)                  1.3566         0.706311   
      7. B(H   8,C   7)                  0.9296         0.649238   
      8. B(C   9,C   7)                  1.3902         0.624388   
      9. B(H  10,C   9)                  0.9304         0.647185   
     10. B(C  11,N   2)                  1.3590         0.627044   
     11. B(C  11,C   9)                  1.3774         0.654317   
     12. B(C  13,N  12)                  1.3376         0.678300   
     13. B(H  14,C  13)                  0.9300         0.648275   
     14. B(C  15,C  13)                  1.3697         0.673184   
     15. B(H  16,C  15)                  0.9312         0.645415   
     16. B(C  17,C  15)                  1.3741         0.662334   
     17. B(H  18,C  17)                  0.9297         0.648773   
     18. B(C  19,C  17)                  1.3735         0.663888   
     19. B(H  20,C  19)                  0.9295         0.649411   
     20. B(C  21,C  19)                  1.3852         0.635964   
     21. B(C  21,N  12)                  1.3466         0.656394   
     22. B(Mn 24,Br 23)                  2.6135         0.237310   
     23. B(Mn 24,Br 22)                  2.6242         0.228168   
     24. B(Mn 24,N  12)                  2.2721         0.221631   
     25. B(Mn 24,N   2)                  2.2406         0.248844   
     26. B(H  26,O  25)                  0.8196         0.870827   
     27. B(H  28,O  27)                  0.8201         0.869240   
     28. B(N  29,Mn 24)                  2.3373         0.174410   
     29. B(N  30,Mn 24)                  2.3462         0.168850   
     30. B(C  31,N  29)                  1.4835         0.396919   
     31. B(H  32,C  31)                  0.9689         0.561914   
     32. B(H  33,C  31)                  0.9716         0.556344   
     33. B(C  34,C  31)                  1.5346         0.367330   
     34. B(C  34,N  30)                  1.4791         0.403401   
     35. B(H  35,C  34)                  0.9706         0.558440   
     36. B(H  36,C  34)                  0.9683         0.563190   
     37. B(C  37,N  30)                  1.5014         0.371689   
     38. B(H  38,C  37)                  0.9710         0.557563   
     39. B(H  39,C  37)                  0.9693         0.561031   
     40. B(C  40,C  37)                  1.5094         0.402880   
     41. B(C  41,C  40)                  1.3753         0.659552   
     42. B(O  42,C  41)                  1.3945         0.550478   
     43. B(H  43,O  42)                  0.8203         0.868715   
     44. B(C  44,C  41)                  1.4068         0.587421   
     45. B(H  45,C  44)                  0.9302         0.647621   
     46. B(C  46,C  44)                  1.3276         0.785743   
     47. B(H  47,C  46)                  0.9300         0.648126   
     48. B(C  48,C  46)                  1.3706         0.670871   
     49. B(C  48,O  25)                  1.3347         0.685707   
     50. B(C  49,C  48)                  1.4512         0.499013   
     51. B(C  49,C  40)                  1.3776         0.653799   
     52. B(H  50,C  49)                  0.9315         0.644597   
     53. B(C  51,N  30)                  1.4671         0.421532   
     54. B(C  51,C  21)                  1.5011         0.415374   
     55. B(H  52,C  51)                  0.9704         0.558771   
     56. B(H  53,C  51)                  0.9705         0.558529   
     57. B(C  54,N  29)                  1.5089         0.361550   
     58. B(H  55,C  54)                  0.9696         0.560348   
     59. B(H  56,C  54)                  0.9708         0.558036   
     60. B(C  57,C  54)                  1.4991         0.418471   
     61. B(C  57,C   0)                  1.3817         0.644228   
     62. B(C  58,C   0)                  1.3399         0.751081   
     63. B(C  59,C  58)                  1.3819         0.643677   
     64. B(H  60,C  59)                  0.9300         0.648197   
     65. B(C  61,C  59)                  1.3849         0.636608   
     66. B(H  62,C  61)                  0.9293         0.649813   
     67. B(C  63,C  61)                  1.3878         0.629975   
     68. B(C  63,C  57)                  1.3759         0.658130   
     69. B(C  63,O  27)                  1.3626         0.618786   
     70. B(C  64,N  29)                  1.4744         0.410390   
     71. B(C  64,C  11)                  1.4982         0.419850   
     72. B(H  65,C  64)                  0.9705         0.558476   
     73. B(H  66,C  64)                  0.9702         0.559248   
     74. B(O  67,C  58)                  1.3837         0.572691   
     75. B(H  68,O  67)                  0.8199         0.870090   
     76. A(H   1,C   0,C  57)          118.6404         0.393136   
     77. A(H   1,C   0,C  58)          118.7017         0.403886   
     78. A(C  57,C   0,C  58)          122.6579         0.452516   
     79. A(C   3,N   2,Mn 24)          126.9485         0.415741   
     80. A(C  11,N   2,Mn 24)          115.2723         0.409409   
     81. A(C   3,N   2,C  11)          117.2031         0.436893   
     82. A(N   2,C   3,C   5)          124.1942         0.449040   
     83. A(N   2,C   3,H   4)          117.8255         0.394839   
     84. A(H   4,C   3,C   5)          117.9803         0.399384   
     85. A(C   3,C   5,C   7)          118.7798         0.454713   
     86. A(H   6,C   5,C   7)          120.6138         0.399215   
     87. A(C   3,C   5,H   6)          120.6060         0.398940   
     88. A(C   5,C   7,H   8)          120.3224         0.399602   
     89. A(H   8,C   7,C   9)          120.4056         0.391055   
     90. A(C   5,C   7,C   9)          119.2719         0.444965   
     91. A(C   7,C   9,C  11)          118.9831         0.438857   
     92. A(C   7,C   9,H  10)          120.6025         0.390838   
     93. A(H  10,C   9,C  11)          120.4141         0.394054   
     94. A(N   2,C  11,C  64)          115.4254         0.403127   
     95. A(N   2,C  11,C   9)          121.5453         0.436312   
     96. A(C   9,C  11,C  64)          123.0285         0.408801   
     97. A(C  13,N  12,Mn 24)          126.0767         0.406719   
     98. A(C  13,N  12,C  21)          118.1830         0.439886   
     99. A(C  21,N  12,Mn 24)          115.6477         0.404367   
    100. A(N  12,C  13,C  15)          123.1724         0.444826   
    101. A(N  12,C  13,H  14)          118.3742         0.394135   
    102. A(H  14,C  13,C  15)          118.4533         0.396140   
    103. A(C  13,C  15,C  17)          118.7123         0.445849   
    104. A(C  13,C  15,H  16)          120.6169         0.395833   
    105. A(H  16,C  15,C  17)          120.6708         0.394706   
    106. A(H  18,C  17,C  19)          120.4625         0.395228   
    107. A(C  15,C  17,C  19)          119.0322         0.444728   
    108. A(C  15,C  17,H  18)          120.5051         0.395065   
    109. A(C  17,C  19,C  21)          119.5434         0.441472   
    110. A(H  20,C  19,C  21)          120.2572         0.392331   
    111. A(C  17,C  19,H  20)          120.1993         0.395296   
    112. A(N  12,C  21,C  19)          121.3365         0.437674   
    113. A(N  12,C  21,C  51)          116.7415         0.405628   
    114. A(C  19,C  21,C  51)          121.9218         0.405978   
    115. A(N   2,Mn 24,Br 22)           93.7863         0.403990   
    116. A(N   2,Mn 24,N  12)          164.3300         0.382142   
    117. A(Br 23,Mn 24,N  30)           93.8432         0.380097   
    118. A(Br 22,Mn 24,N  30)          165.6137         0.377520   
    119. A(N  12,Mn 24,N  30)           72.4146         0.357508   
    120. A(N   2,Mn 24,N  30)           93.7744         0.364640   
    121. A(Br 23,Mn 24,N  29)          165.6269         0.382239   
    122. A(Br 22,Mn 24,N  29)           92.5730         0.379644   
    123. A(N  12,Mn 24,N  29)           94.7228         0.359484   
    124. A(N   2,Mn 24,N  29)           74.6425         0.366668   
    125. A(Br 22,Mn 24,Br 23)           97.7271         0.421654   
    126. A(N  12,Mn 24,Br 23)           93.6967         0.398581   
    127. A(N   2,Mn 24,Br 23)           94.6137         0.406804   
    128. A(N  12,Mn 24,Br 22)           98.2331         0.395841   
    129. A(N  29,Mn 24,N  30)           77.6787         0.343335   
    130. A(H  26,O  25,C  48)          109.4788         0.412206   
    131. A(H  28,O  27,C  63)          109.5210         0.404650   
    132. A(C  31,N  29,C  64)          110.0795         0.368465   
    133. A(C  31,N  29,C  54)          111.1445         0.360564   
    134. A(Mn 24,N  29,C  54)          112.6643         0.350002   
    135. A(Mn 24,N  29,C  31)          107.4513         0.355574   
    136. A(C  54,N  29,C  64)          111.4079         0.362624   
    137. A(Mn 24,N  29,C  64)          103.7887         0.357596   
    138. A(C  34,N  30,C  37)          111.3780         0.363273   
    139. A(Mn 24,N  30,C  37)          112.7153         0.349722   
    140. A(Mn 24,N  30,C  34)          106.4689         0.354599   
    141. A(C  37,N  30,C  51)          111.1083         0.366016   
    142. A(C  34,N  30,C  51)          108.9475         0.371198   
    143. A(Mn 24,N  30,C  51)          105.9459         0.357255   
    144. A(H  33,C  31,C  34)          109.4134         0.347678   
    145. A(H  32,C  31,C  34)          109.5273         0.348262   
    146. A(N  29,C  31,C  34)          110.9568         0.363802   
    147. A(H  32,C  31,H  33)          108.0694         0.335323   
    148. A(N  29,C  31,H  33)          109.3624         0.350088   
    149. A(N  29,C  31,H  32)          109.4592         0.350677   
    150. A(H  35,C  34,H  36)          108.1639         0.335659   
    151. A(C  31,C  34,H  36)          109.5443         0.348395   
    152. A(N  30,C  34,H  36)          109.6111         0.351773   
    153. A(C  31,C  34,H  35)          109.5386         0.347898   
    154. A(N  30,C  34,H  35)          109.5069         0.351270   
    155. A(N  30,C  34,C  31)          110.4388         0.364811   
    156. A(H  38,C  37,C  40)          107.8136         0.353274   
    157. A(N  30,C  37,C  40)          117.6111         0.365468   
    158. A(H  38,C  37,H  39)          107.1763         0.335357   
    159. A(H  39,C  37,C  40)          107.8979         0.353645   
    160. A(N  30,C  37,H  39)          107.9979         0.346724   
    161. A(N  30,C  37,H  38)          107.9116         0.346363   
    162. A(C  41,C  40,C  49)          117.8888         0.443159   
    163. A(C  37,C  40,C  49)          120.4538         0.405771   
    164. A(C  37,C  40,C  41)          121.5677         0.406400   
    165. A(O  42,C  41,C  44)          119.4375         0.418092   
    166. A(C  40,C  41,C  44)          122.4768         0.434681   
    167. A(C  40,C  41,O  42)          117.9857         0.426833   
    168. A(C  41,O  42,H  43)          109.5068         0.396360   
    169. A(H  45,C  44,C  46)          120.0072         0.407005   
    170. A(C  41,C  44,C  46)          119.9113         0.448653   
    171. A(C  41,C  44,H  45)          120.0815         0.386743   
    172. A(H  47,C  46,C  48)          119.8351         0.395885   
    173. A(C  44,C  46,C  48)          120.4869         0.459631   
    174. A(C  44,C  46,H  47)          119.6779         0.407062   
    175. A(C  46,C  48,C  49)          120.1236         0.423437   
    176. A(O  25,C  48,C  49)          120.6937         0.422332   
    177. A(O  25,C  48,C  46)          119.1767         0.445424   
    178. A(C  48,C  49,H  50)          120.4246         0.375647   
    179. A(C  40,C  49,H  50)          120.5428         0.393723   
    180. A(C  40,C  49,C  48)          119.0325         0.421492   
    181. A(H  52,C  51,H  53)          107.9537         0.335229   
    182. A(N  30,C  51,H  53)          109.2345         0.353902   
    183. A(C  21,C  51,H  53)          109.3258         0.355212   
    184. A(N  30,C  51,H  52)          109.2579         0.353928   
    185. A(C  21,C  51,H  52)          109.3065         0.355238   
    186. A(C  21,C  51,N  30)          111.6856         0.375429   
    187. A(H  56,C  54,C  57)          108.0162         0.355606   
    188. A(H  55,C  54,C  57)          108.0505         0.355856   
    189. A(N  29,C  54,C  57)          116.9184         0.366114   
    190. A(H  55,C  54,H  56)          107.3034         0.335337   
    191. A(N  29,C  54,H  56)          108.0410         0.344806   
    192. A(N  29,C  54,H  55)          108.1390         0.345045   
    193. A(C  54,C  57,C  63)          122.9745         0.408983   
    194. A(C   0,C  57,C  63)          118.2303         0.441807   
    195. A(C   0,C  57,C  54)          118.7936         0.407441   
    196. A(C   0,C  58,C  59)          119.8313         0.452445   
    197. A(C  59,C  58,O  67)          120.0599         0.427997   
    198. A(C   0,C  58,O  67)          120.1042         0.440046   
    199. A(H  60,C  59,C  61)          120.5477         0.392272   
    200. A(C  58,C  59,C  61)          118.9898         0.439094   
    201. A(C  58,C  59,H  60)          120.4625         0.393031   
    202. A(H  62,C  61,C  63)          119.7591         0.391725   
    203. A(C  59,C  61,C  63)          120.3779         0.437393   
    204. A(C  59,C  61,H  62)          119.8630         0.392443   
    205. A(C  57,C  63,C  61)          119.8687         0.440025   
    206. A(O  27,C  63,C  61)          121.2439         0.432313   
    207. A(O  27,C  63,C  57)          118.8544         0.435727   
    208. A(H  65,C  64,H  66)          107.9932         0.335271   
    209. A(N  29,C  64,H  66)          109.3025         0.352378   
    210. A(C  11,C  64,H  66)          109.2830         0.355936   
    211. A(N  29,C  64,H  65)          109.2870         0.352295   
    212. A(C  11,C  64,H  65)          109.3548         0.355853   
    213. A(C  11,C  64,N  29)          111.5492         0.374389   
    214. A(C  58,O  67,H  68)          109.4402         0.399236   
    215. D(C   5,C   3,N   2,C  11)     -0.9326         0.038500   
    216. D(C   5,C   3,N   2,Mn 24)    169.9042         0.038500   
    217. D(H   4,C   3,N   2,C  11)    179.0491         0.038500   
    218. D(H   4,C   3,N   2,Mn 24)    -10.1141         0.038500   
    219. D(H   6,C   5,C   3,N   2)   -178.5363         0.034892   
    220. D(H   6,C   5,C   3,H   4)      1.4819         0.034892   
    221. D(C   7,C   5,C   3,H   4)   -178.7470         0.034892   
    222. D(C   7,C   5,C   3,N   2)      1.2347         0.034892   
    223. D(C   9,C   7,C   5,C   3)     -1.4488         0.035190   
    224. D(C   9,C   7,C   5,H   6)    178.3222         0.035190   
    225. D(H   8,C   7,C   5,C   3)    178.4242         0.035190   
    226. D(H   8,C   7,C   5,H   6)     -1.8047         0.035190   
    227. D(H  10,C   9,C   7,C   5)   -178.7509         0.027001   
    228. D(H  10,C   9,C   7,H   8)      1.3762         0.027001   
    229. D(C  11,C   9,C   7,H   8)   -178.4253         0.027001   
    230. D(C  11,C   9,C   7,C   5)      1.4476         0.027001   
    231. D(C  64,C  11,N   2,C   3)   -178.7787         0.031895   
    232. D(C  64,C  11,C   9,H  10)     -1.3327         0.029837   
    233. D(C  64,C  11,C   9,C   7)    178.4693         0.029837   
    234. D(C   9,C  11,N   2,C   3)      0.9010         0.031895   
    235. D(N   2,C  11,C   9,C   7)     -1.1857         0.029837   
    236. D(C  64,C  11,N   2,Mn 24)      9.3118         0.031895   
    237. D(N   2,C  11,C   9,H  10)    179.0123         0.029837   
    238. D(C   9,C  11,N   2,Mn 24)   -171.0085         0.031895   
    239. D(C  15,C  13,N  12,C  21)     -0.2844         0.037840   
    240. D(C  15,C  13,N  12,Mn 24)   -176.6198         0.037840   
    241. D(H  14,C  13,N  12,Mn 24)      3.5275         0.037840   
    242. D(H  14,C  13,N  12,C  21)    179.8629         0.037840   
    243. D(H  16,C  15,C  13,H  14)      1.1819         0.031717   
    244. D(C  17,C  15,C  13,N  12)      1.3172         0.031717   
    245. D(H  16,C  15,C  13,N  12)   -178.6707         0.031717   
    246. D(C  17,C  15,C  13,H  14)   -178.8302         0.031717   
    247. D(C  19,C  17,C  15,C  13)     -1.0635         0.030627   
    248. D(H  18,C  17,C  15,H  16)     -1.2059         0.030627   
    249. D(H  18,C  17,C  15,C  13)    178.8062         0.030627   
    250. D(C  19,C  17,C  15,H  16)    178.9245         0.030627   
    251. D(C  21,C  19,C  17,H  18)    179.9977         0.030782   
    252. D(H  20,C  19,C  17,H  18)      0.0317         0.030782   
    253. D(H  20,C  19,C  17,C  15)    179.9014         0.030782   
    254. D(C  21,C  19,C  17,C  15)     -0.1326         0.030782   
    255. D(C  51,C  21,C  19,H  20)      1.0487         0.028077   
    256. D(N  12,C  21,C  19,H  20)   -178.8400         0.028077   
    257. D(C  51,C  21,C  19,C  17)   -178.9172         0.028077   
    258. D(C  51,C  21,N  12,Mn 24)     -4.1628         0.035222   
    259. D(C  51,C  21,N  12,C  13)    179.1224         0.035222   
    260. D(N  12,C  21,C  19,C  17)      1.1940         0.028077   
    261. D(C  19,C  21,N  12,Mn 24)    175.7315         0.035222   
    262. D(C  19,C  21,N  12,C  13)     -0.9833         0.035222   
    263. D(N  29,Mn 24,N  12,C  13)    -86.4935         0.001765   
    264. D(Br 23,Mn 24,N  12,C  21)    -71.2504         0.001765   
    265. D(Br 23,Mn 24,N  12,C  13)    105.1665         0.001765   
    266. D(Br 22,Mn 24,N  12,C  13)      6.8010         0.001765   
    267. D(N   2,Mn 24,N  12,C  21)     50.6703         0.001765   
    268. D(N   2,Mn 24,N  12,C  13)   -132.9128         0.001765   
    269. D(N  29,Mn 24,N   2,C   3)   -157.9433         0.001831   
    270. D(Br 23,Mn 24,N   2,C  11)   -176.6647         0.001831   
    271. D(Br 23,Mn 24,N   2,C   3)     12.3463         0.001831   
    272. D(Br 22,Mn 24,N  12,C  21)   -169.6159         0.001765   
    273. D(Br 22,Mn 24,N   2,C  11)    -78.5863         0.001831   
    274. D(N  12,Mn 24,N   2,C  11)     61.5218         0.001831   
    275. D(Br 22,Mn 24,N   2,C   3)    110.4247         0.001831   
    276. D(N  12,Mn 24,N   2,C   3)   -109.4672         0.001831   
    277. D(C  31,N  29,Mn 24,N   2)     84.9800         0.001677   
    278. D(C  54,N  29,Mn 24,Br 22)    -59.0435         0.001677   
    279. D(C  54,N  29,Mn 24,N  12)     39.4412         0.001677   
    280. D(C  54,N  29,Mn 24,N   2)   -152.2656         0.001677   
    281. D(C  31,N  29,Mn 24,N  30)    -12.4818         0.001677   
    282. D(C  31,N  29,Mn 24,Br 23)     42.3495         0.001677   
    283. D(C  31,N  29,Mn 24,Br 22)    178.2021         0.001677   
    284. D(C  31,N  29,Mn 24,N  12)    -83.3132         0.001677   
    285. D(C  37,N  30,Mn 24,Br 22)    153.1517         0.001666   
    286. D(C  37,N  30,Mn 24,N  12)   -155.9730         0.001666   
    287. D(C  37,N  30,Mn 24,N   2)     31.5810         0.001666   
    288. D(C  34,N  30,Mn 24,N  29)    -17.4430         0.001666   
    289. D(C  34,N  30,Mn 24,Br 23)    174.2917         0.001666   
    290. D(C  34,N  30,Mn 24,Br 22)     30.7514         0.001666   
    291. D(C  34,N  30,Mn 24,N  12)     81.6267         0.001666   
    292. D(C  34,N  30,Mn 24,N   2)    -90.8193         0.001666   
    293. D(H  33,C  31,N  29,C  64)    -86.0081         0.014401   
    294. D(H  33,C  31,N  29,C  54)     37.9134         0.014401   
    295. D(H  33,C  31,N  29,Mn 24)    161.6009         0.014401   
    296. D(H  32,C  31,N  29,C  64)     32.2109         0.014401   
    297. D(H  32,C  31,N  29,C  54)    156.1324         0.014401   
    298. D(H  32,C  31,N  29,Mn 24)    -80.1801         0.014401   
    299. D(H  35,C  34,C  31,H  33)    -60.7900         0.010796   
    300. D(H  35,C  34,C  31,N  29)     59.9675         0.010796   
    301. D(N  30,C  34,C  31,H  33)    178.5208         0.010796   
    302. D(N  30,C  34,C  31,H  32)     60.2315         0.010796   
    303. D(H  35,C  34,N  30,C  51)     38.2233         0.014869   
    304. D(H  35,C  34,N  30,C  37)    161.1308         0.014869   
    305. D(H  35,C  34,N  30,Mn 24)    -75.6292         0.014869   
    306. D(N  30,C  34,C  31,N  29)    -60.7217         0.010796   
    307. D(C  31,C  34,N  30,C  51)    158.9313         0.014869   
    308. D(H  35,C  34,C  31,H  32)   -179.0794         0.010796   
    309. D(C  31,C  34,N  30,C  37)    -78.1612         0.014869   
    310. D(C  31,C  34,N  30,Mn 24)     45.0788         0.014869   
    311. D(H  39,C  37,N  30,C  51)   -177.0832         0.012669   
    312. D(H  39,C  37,N  30,C  34)     61.2562         0.012669   
    313. D(H  39,C  37,N  30,Mn 24)    -58.3418         0.012669   
    314. D(H  38,C  37,N  30,C  51)    -61.5312         0.012669   
    315. D(H  38,C  37,N  30,C  34)    176.8081         0.012669   
    316. D(H  38,C  37,N  30,Mn 24)     57.2101         0.012669   
    317. D(C  49,C  40,C  37,H  38)     30.4758         0.012038   
    318. D(C  49,C  40,C  37,N  30)    -91.7067         0.012038   
    319. D(C  41,C  40,C  37,H  39)    -30.5579         0.012038   
    320. D(C  41,C  40,C  37,H  38)   -146.0084         0.012038   
    321. D(C  41,C  40,C  37,N  30)     91.8091         0.012038   
    322. D(C  44,C  41,C  40,C  49)     -0.3980         0.030352   
    323. D(C  44,C  41,C  40,C  37)    176.1731         0.030352   
    324. D(O  42,C  41,C  40,C  49)   -176.7382         0.030352   
    325. D(O  42,C  41,C  40,C  37)     -0.1671         0.030352   
    326. D(H  43,O  42,C  41,C  44)      4.0790         0.021918   
    327. D(H  43,O  42,C  41,C  40)   -179.4660         0.021918   
    328. D(C  46,C  44,C  41,O  42)    178.7601         0.023736   
    329. D(C  46,C  44,C  41,C  40)      2.4711         0.023736   
    330. D(H  45,C  44,C  41,O  42)     -1.2213         0.023736   
    331. D(H  45,C  44,C  41,C  40)   -177.5103         0.023736   
    332. D(C  48,C  46,C  44,H  45)    176.4735         0.044444   
    333. D(C  48,C  46,C  44,C  41)     -3.5079         0.044444   
    334. D(H  47,C  46,C  44,H  45)     -3.5713         0.044444   
    335. D(H  47,C  46,C  44,C  41)    176.4473         0.044444   
    336. D(C  49,C  48,C  46,H  47)   -177.3751         0.031482   
    337. D(C  49,C  48,C  46,C  44)      2.5800         0.031482   
    338. D(O  25,C  48,C  46,H  47)      3.5076         0.031482   
    339. D(O  25,C  48,C  46,C  44)   -176.5372         0.031482   
    340. D(C  49,C  48,O  25,H  26)      3.9327         0.035075   
    341. D(C  46,C  48,O  25,H  26)   -176.9553         0.035075   
    342. D(H  50,C  49,C  48,O  25)     -1.2659         0.016961   
    343. D(C  40,C  49,C  48,C  46)     -0.5014         0.016961   
    344. D(C  40,C  49,C  48,O  25)    178.6022         0.016961   
    345. D(H  50,C  49,C  40,C  41)    179.3331         0.029787   
    346. D(H  50,C  49,C  40,C  37)      2.7221         0.029787   
    347. D(C  48,C  49,C  40,C  41)     -0.5349         0.029787   
    348. D(H  50,C  49,C  48,C  46)    179.6304         0.016961   
    349. D(C  48,C  49,C  40,C  37)   -177.1458         0.029787   
    350. D(H  52,C  51,N  30,C  37)     45.7794         0.016230   
    351. D(H  52,C  51,N  30,C  34)    168.8484         0.016230   
    352. D(H  52,C  51,N  30,Mn 24)    -76.9581         0.016230   
    353. D(C  21,C  51,N  30,C  37)    166.8319         0.016230   
    354. D(C  21,C  51,N  30,C  34)    -70.0991         0.016230   
    355. D(C  21,C  51,N  30,Mn 24)     44.0944         0.016230   
    356. D(H  53,C  51,C  21,N  12)   -149.6773         0.012767   
    357. D(H  52,C  51,C  21,C  19)    -87.5389         0.012767   
    358. D(H  52,C  51,C  21,N  12)     92.3547         0.012767   
    359. D(N  30,C  51,C  21,C  19)    151.4369         0.012767   
    360. D(N  30,C  51,C  21,N  12)    -28.6695         0.012767   
    361. D(H  56,C  54,N  29,C  64)    -76.4074         0.012012   
    362. D(H  56,C  54,N  29,C  31)    160.4300         0.012012   
    363. D(H  56,C  54,N  29,Mn 24)     39.7693         0.012012   
    364. D(H  55,C  54,N  29,C  64)    167.7518         0.012012   
    365. D(H  55,C  54,N  29,C  31)     44.5892         0.012012   
    366. D(H  55,C  54,N  29,Mn 24)    -76.0715         0.012012   
    367. D(C  63,C  57,C  54,H  55)    -28.9780         0.012952   
    368. D(C  63,C  57,C  54,N  29)     93.2097         0.012952   
    369. D(C   0,C  57,C  54,H  56)     34.7724         0.012952   
    370. D(C   0,C  57,C  54,H  55)    150.5544         0.012952   
    371. D(C   0,C  57,C  54,N  29)    -87.2579         0.012952   
    372. D(C  63,C  57,C   0,C  58)      0.0702         0.028862   
    373. D(C  63,C  57,C   0,H   1)   -179.8795         0.028862   
    374. D(C  54,C  57,C   0,C  58)   -179.4846         0.028862   
    375. D(C  54,C  57,C   0,H   1)      0.5657         0.028862   
    376. D(O  67,C  58,C   0,C  57)    179.1732         0.040242   
    377. D(O  67,C  58,C   0,H   1)     -0.8771         0.040242   
    378. D(C  59,C  58,C   0,C  57)     -1.6122         0.040242   
    379. D(C  59,C  58,C   0,H   1)    178.3374         0.040242   
    380. D(C  61,C  59,C  58,O  67)   -178.2246         0.028809   
    381. D(C  61,C  59,C  58,C   0)      2.5605         0.028809   
    382. D(H  60,C  59,C  58,O  67)      1.6967         0.028809   
    383. D(H  60,C  59,C  58,C   0)   -177.5183         0.028809   
    384. D(C  63,C  61,C  59,H  60)    178.0480         0.028138   
    385. D(C  63,C  61,C  59,C  58)     -2.0308         0.028138   
    386. D(H  62,C  61,C  59,H  60)     -1.8740         0.028138   
    387. D(H  62,C  61,C  59,C  58)    178.0472         0.028138   
    388. D(C  57,C  63,C  61,C  59)      0.5184         0.027517   
    389. D(O  27,C  63,C  61,H  62)     -1.6706         0.027517   
    390. D(O  27,C  63,C  61,C  59)    178.4074         0.027517   
    391. D(C  61,C  63,C  57,C  54)   -179.9879         0.030212   
    392. D(C  61,C  63,C  57,C   0)      0.4772         0.030212   
    393. D(O  27,C  63,C  57,C  54)      2.0727         0.030212   
    394. D(O  27,C  63,C  57,C   0)   -177.4622         0.030212   
    395. D(C  61,C  63,O  27,H  28)      1.9387         0.028084   
    396. D(C  57,C  63,C  61,H  62)   -179.5596         0.027517   
    397. D(C  57,C  63,O  27,H  28)    179.8486         0.028084   
    398. D(H  65,C  64,N  29,C  54)     47.7131         0.015385   
    399. D(H  65,C  64,N  29,C  31)    171.4816         0.015385   
    400. D(H  65,C  64,N  29,Mn 24)    -73.7792         0.015385   
    401. D(C  11,C  64,N  29,C  54)    168.7575         0.015385   
    402. D(C  11,C  64,N  29,C  31)    -67.4740         0.015385   
    403. D(C  11,C  64,N  29,Mn 24)     47.2652         0.015385   
    404. D(H  66,C  64,C  11,N   2)   -161.4972         0.013035   
    405. D(H  65,C  64,C  11,C   9)    -99.1906         0.013035   
    406. D(H  65,C  64,C  11,N   2)     80.4839         0.013035   
    407. D(N  29,C  64,C  11,C   9)    139.8045         0.013035   
    408. D(N  29,C  64,C  11,N   2)    -40.5210         0.013035   
    409. D(H  68,O  67,C  58,C  59)    -23.7072         0.023819   
    410. D(H  68,O  67,C  58,C   0)    155.5056         0.023819   
    -----------------------------------------------------------------

Number of atoms                         .... 69
Number of degrees of freedom            .... 410


         *************************************************************
         *                GEOMETRY OPTIMIZATION CYCLE   1            *
         *************************************************************
---------------------------------
CARTESIAN COORDINATES (ANGSTROEM)
---------------------------------
  C      0.423600   10.522100   12.279900
  H      0.710300   10.368700   11.408800
  N      1.196200    5.339900   10.728300
  C      0.964700    4.144000   10.180800
  H      1.698900    3.622700    9.950900
  C     -0.273500    3.642400    9.938800
  H     -0.377500    2.792600    9.572900
  C     -1.356400    4.400300   10.244300
  H     -2.213500    4.087000   10.067400
  C     -1.169700    5.650900   10.822000
  H     -1.899600    6.178800   11.054900
  C      0.113900    6.099900   11.041300
  N      4.886600    6.857700   12.744100
  C      5.602500    7.970400   12.547500
  H      5.358500    8.535500   11.850400
  C      6.675100    8.318600   13.324900
  H      7.137300    9.111500   13.167600
  C      7.055300    7.475400   14.341100
  H      7.789800    7.679100   14.873500
  C      6.336000    6.325500   14.557400
  H      6.579700    5.742900   15.239400
  C      5.245000    6.040800   13.752800
  Br     3.357200    7.905300    9.531600
  Br     4.576700    4.240400   10.333200
  Mn     3.162700    6.130600   11.454900
  O      3.744900    0.173000   16.520400
  H      4.371900    0.181800   15.992600
  O      1.118400    9.310800   15.608400
  H      0.778600    9.538600   16.319200
  N      1.539200    7.376800   12.583800
  N      3.023300    5.020100   13.516900
  C      1.137500    6.601500   13.783100
  H      0.505400    5.913700   13.526000
  H      0.698300    7.192800   14.416700
  C      2.357300    5.953200   14.451500
  H      2.984000    6.643100   14.722200
  H      2.075600    5.473500   15.244000
  C      2.283500    3.716900   13.424700
  H      2.732200    3.164900   12.763800
  H      1.393600    3.900900   13.087400
  C      2.141700    2.902100   14.687400
  C      1.051800    3.040100   15.514700
  O      0.071100    3.964400   15.156300
  H     -0.523000    3.966600   15.721900
  C      0.861200    2.236300   16.653400
  H      0.094300    2.334800   17.170600
  C      1.777400    1.336100   16.989200
  H      1.672300    0.841100   17.769500
  C      2.875900    1.132400   16.195200
  C      3.075300    1.940600   15.006500
  H      3.823000    1.809200   14.466700
  C      4.407300    4.812000   13.957000
  H      4.793800    4.073900   13.459500
  H      4.411200    4.573300   14.897700
  C      2.023600    8.754500   12.963400
  H      2.614600    8.666900   13.727100
  H      2.552900    9.100600   12.226900
  C      0.976600    9.773000   13.300700
  C     -0.509400   11.459500   12.494600
  C     -0.977400   11.682900   13.775500
  H     -1.649300   12.307100   13.929800
  C     -0.429500   10.964500   14.825100
  H     -0.715900   11.124400   15.694600
  C      0.544400   10.005200   14.586100
  C      0.419800    7.444700   11.626600
  H      0.645400    8.062400   10.912800
  H     -0.368600    7.784200   12.078700
  O     -1.015100   12.191000   11.434500
  H     -1.762000   12.469200   11.626600

----------------------------
CARTESIAN COORDINATES (A.U.)
----------------------------
  NO LB      ZA    FRAG     MASS         X           Y           Z
   0 C     6.0000    0    12.011    0.800488   19.883887   23.205648
   1 H     1.0000    0     1.008    1.342272   19.594003   21.559508
   2 N     7.0000    0    14.007    2.260490   10.090949   20.273549
   3 C     6.0000    0    12.011    1.823019    7.831025   19.238924
   4 H     1.0000    0     1.008    3.210456    6.845911   18.804476
   5 C     6.0000    0    12.011   -0.516840    6.883138   18.781610
   6 H     1.0000    0     1.008   -0.713372    5.277249   18.090159
   7 C     6.0000    0    12.011   -2.563225    8.315362   19.358921
   8 H     1.0000    0     1.008   -4.182909    7.723311   19.024629
   9 C     6.0000    0    12.011   -2.210413   10.678653   20.450616
  10 H     1.0000    0     1.008   -3.589724   11.676240   20.890733
  11 C     6.0000    0    12.011    0.215240   11.527140   20.865033
  12 N     7.0000    0    14.007    9.234336   12.959175   24.082859
  13 C     6.0000    0    12.011   10.587191   15.061873   23.711339
  14 H     1.0000    0     1.008   10.126097   16.129757   22.394011
  15 C     6.0000    0    12.011   12.614111   15.719876   25.180412
  16 H     1.0000    0     1.008   13.487542   17.218240   24.883158
  17 C     6.0000    0    12.011   13.332585   14.126459   27.100751
  18 H     1.0000    0     1.008   14.720589   14.511396   28.106842
  19 C     6.0000    0    12.011   11.973305   11.953463   27.509499
  20 H     1.0000    0     1.008   12.433831   10.852508   28.798292
  21 C     6.0000    0    12.011    9.911614   11.415458   25.989026
  22 Br   35.0000    0    79.900    6.344189   14.938852   18.012114
  23 Br   35.0000    0    79.900    8.648710    8.013195   19.526918
  24 Mn   25.0000    0    54.940    5.976637   11.585155   21.646624
  25 O     8.0000    0    15.999    7.076835    0.326923   31.219032
  26 H     1.0000    0     1.008    8.261694    0.343552   30.221634
  27 O     8.0000    0    15.999    2.113470   17.594862   29.495601
  28 H     1.0000    0     1.008    1.471341   18.025342   30.838819
  29 N     7.0000    0    14.007    2.908666   13.940132   23.779936
  30 N     7.0000    0    14.007    5.713209    9.486614   25.543239
  31 C     6.0000    0    12.011    2.149563   12.475027   26.046284
  32 H     1.0000    0     1.008    0.955068   11.175273   25.560436
  33 H     1.0000    0     1.008    1.319596   13.592422   27.243615
  34 C     6.0000    0    12.011    4.454651   11.249918   27.309377
  35 H     1.0000    0     1.008    5.638943   12.553640   27.820926
  36 H     1.0000    0     1.008    3.922316   10.343416   28.806985
  37 C     6.0000    0    12.011    4.315190    7.023923   25.369006
  38 H     1.0000    0     1.008    5.163110    5.980794   24.120086
  39 H     1.0000    0     1.008    2.633522    7.371633   24.731602
  40 C     6.0000    0    12.011    4.047226    5.484174   27.755164
  41 C     6.0000    0    12.011    1.987614    5.744956   29.318534
  42 O     8.0000    0    15.999    0.134360    7.491630   28.641256
  43 H     1.0000    0     1.008   -0.988327    7.495788   29.710085
  44 C     6.0000    0    12.011    1.627432    4.225995   31.470365
  45 H     1.0000    0     1.008    0.178201    4.412133   32.447732
  46 C     6.0000    0    12.011    3.358799    2.524863   32.104935
  47 H     1.0000    0     1.008    3.160189    1.589449   33.579489
  48 C     6.0000    0    12.011    5.434663    2.139926   30.604493
  49 C     6.0000    0    12.011    5.811475    3.667203   28.358175
  50 H     1.0000    0     1.008    7.224423    3.418893   27.338101
  51 C     6.0000    0    12.011    8.328590    9.093362   26.374908
  52 H     1.0000    0     1.008    9.058969    7.698555   25.434769
  53 H     1.0000    0     1.008    8.335960    8.642285   28.152573
  54 C     6.0000    0    12.011    3.824050   16.543607   24.497276
  55 H     1.0000    0     1.008    4.940878   16.378067   25.940460
  56 H     1.0000    0     1.008    4.824282   17.197642   23.105492
  57 C     6.0000    0    12.011    1.845507   18.468294   25.134680
  58 C     6.0000    0    12.011   -0.962626   21.655317   23.611372
  59 C     6.0000    0    12.011   -1.847018   22.077481   26.031922
  60 H     1.0000    0     1.008   -3.116725   23.257049   26.323507
  61 C     6.0000    0    12.011   -0.811637   20.719902   28.015379
  62 H     1.0000    0     1.008   -1.352855   21.022069   29.658496
  63 C     6.0000    0    12.011    1.028767   18.907088   27.563734
  64 C     6.0000    0    12.011    0.793307   14.068444   21.971090
  65 H     1.0000    0     1.008    1.219629   15.235728   20.622203
  66 H     1.0000    0     1.008   -0.696553   14.710006   22.825435
  67 O     8.0000    0    15.999   -1.918261   23.037651   21.608073
  68 H     1.0000    0     1.008   -3.329697   23.563373   21.971090

--------------------------------
INTERNAL COORDINATES (ANGSTROEM)
--------------------------------
 C      0   0   0     0.000000000000     0.00000000     0.00000000
 H      1   0   0     0.929808399618     0.00000000     0.00000000
 N      2   1   0     5.097843514664   108.49336318     0.00000000
 C      3   2   1     1.335486918693   157.15422484   120.35116084
 H      4   3   2     0.929331663078   117.82549010   132.39471135
 C      4   3   2     1.357683983849   124.19424903   312.41294131
 H      6   4   3     0.931052549537   120.60598672   181.46366442
 C      6   4   3     1.356618984830   118.77978136     1.23471461
 H      8   6   4     0.929554145814   120.32239944   178.42422888
 C      8   6   4     1.390177880704   119.27188621   358.55121597
 H     10   8   6     0.930416482012   120.60251994   181.24914941
 C      3   2   1     1.359022549482    48.82947257    61.12073419
 N      3   2   1     4.470594886589    71.55353891   277.89330825
 C     13   3   2     1.337634352131   131.14310585   319.32041143
 H     14  13   3     0.929958289387   118.37419286   355.96249206
 C     14  13   3     1.369695133962   123.17238526   175.81517857
 H     16  14  13     0.931161930064   120.61685956   181.32931064
 C     16  14  13     1.374118160858   118.71230361     1.31724219
 H     18  16  14     0.929749267276   120.50511974   178.80620449
 C     18  16  14     1.373480320208   119.03224823   358.93654900
 H     20  18  16     0.929481818004   120.19933003   179.90143493
 C     13   3   2     1.346570406626   110.57976304   135.64838849
 Br    15  14  13     3.127169194335   126.96217083   347.70489386
 Br     5   4   3     2.968069982329   128.12639324     1.57615279
 Mn     3   2   1     2.240597308755    72.07623573   269.60593041
 O     21  20  18     6.379720844206   125.31450278   182.63716256
 H     26  21  20     0.819621424805    61.40639078    89.84022435
 O      1   2   3     3.609557726370   138.52063478    42.39029663
 H     28   1   2     0.820117991511   128.77413631   180.22965539
 N     25   3   2     2.337345053688    74.64251333    36.43716294
 N     25   3   2     2.346164233382    93.77441236   112.55683660
 C     30  25   3     1.483500411190   107.45128349    84.97998737
 H     32  30  25     0.968875461553   109.45924848   279.81994688
 H     32  30  25     0.971586995590   109.36240654   161.60093847
 C     31  25   3     1.479090521233   106.46885236   269.18066035
 H     35  31  25     0.970563439452   109.50689651   284.37081956
 H     35  31  25     0.968257832398   109.61107128   165.86116489
 C     31  25   3     1.501377740610   112.71533119    31.58098150
 H     38  31  25     0.970991503567   107.91160400    57.21007639
 H     38  31  25     0.969303512838   107.99787704   301.65815545
 C     38  31  25     1.509442801169   117.61107777   179.34237402
 C     41  38  31     1.375264083731   121.56772877    91.80909252
 O     42  41  38     1.394472495247   117.98567095   359.83289764
 H     43  42  41     0.820282274586   109.50678151   180.53401661
 C     42  41  38     1.406790847994   122.47678229   176.17311160
 H     45  42  41     0.930233142820   120.08146586   182.48972228
 C     45  42  41     1.327608421184   119.91129686     2.47111182
 H     47  45  42     0.930021021268   119.67790951   176.44730148
 C     26  21  20     1.334677638983    67.22002090   319.98800395
 C     41  38  31     1.377648728813   120.45384866   268.29328885
 H     50  41  38     0.931506999437   120.54276008     2.72212143
 C     31  25   3     1.467122905554   105.94593178   153.29293752
 H     52  31  25     0.970402035241   109.25786927   283.04187412
 H     52  31  25     0.970520164654   109.23447514   165.15531513
 C     30  25   3     1.508905832052   112.66426372   207.73438320
 H     55  30  25     0.969635214913   108.13903569   283.92848052
 H     55  30  25     0.970760500845   108.04095497    39.76933709
 C      1   2   3     1.381662929227   118.64039794    41.18565634
 C      1   2   3     1.339889491712   118.70165400   221.23395895
 C     59   1   2     1.381895933130   119.83129428   178.33744598
 H     60  59   1     0.929991258023   120.46248588   182.48172940
 C     60  59   1     1.384901848508   118.98976446     2.56045283
 H     62  60  59     0.929313305619   119.86297620   178.04724249
 C     28   1   2     1.362631516588    19.27936359   183.54708823
 C     30  25   3     1.474414666910   103.78873578   328.38265330
 H     65  30  25     0.970545769142   109.28696709   286.22076311
 H     65  30  25     0.970169686189   109.30247805   168.22998088
 O     59   1   2     1.383703996525   120.10416458   359.12286567
 H     68  59   1     0.819851974444   109.44022107   155.50556720

---------------------------
INTERNAL COORDINATES (A.U.)
---------------------------
 C      0   0   0     0.000000000000     0.00000000     0.00000000
 H      1   0   0     1.757083232297     0.00000000     0.00000000
 N      2   1   0     9.633528116301   108.49336318     0.00000000
 C      3   2   1     2.523704531764   157.15422484   120.35116084
 H      4   3   2     1.756182330800   117.82549010   132.39471135
 C      4   3   2     2.565650905886   124.19424903   312.41294131
 H      6   4   3     1.759434334915   120.60598672   181.46366442
 C      6   4   3     2.563638349406   118.77978136     1.23471461
 H      8   6   4     1.756602762240   120.32239944   178.42422888
 C      8   6   4     2.627055471967   119.27188621   358.55121597
 H     10   8   6     1.758232341490   120.60251994   181.24914941
 C      3   2   1     2.568180428344    48.82947257    61.12073419
 N      3   2   1     8.448199991363    71.55353891   277.89330825
 C     13   3   2     2.527762592852   131.14310585   319.32041143
 H     14  13   3     1.757366482912   118.37419286   355.96249206
 C     14  13   3     2.588348690153   123.17238526   175.81517857
 H     16  14  13     1.759641034154   120.61685956   181.32931064
 C     16  14  13     2.596706999669   118.71230361     1.31724219
 H     18  16  14     1.756971488365   120.50511974   178.80620449
 C     18  16  14     2.595501655525   119.03224823   358.93654900
 H     20  18  16     1.756466082487   120.19933003   179.90143493
 C     13   3   2     2.544649288565   110.57976304   135.64838849
 Br    15  14  13     5.909493351729   126.96217083   347.70489386
 Br     5   4   3     5.608839412914   128.12639324     1.57615279
 Mn     3   2   1     4.234115289948    72.07623573   269.60593041
 O     21  20  18    12.055925206419   125.31450278   182.63716256
 H     26  21  20     1.548860026376    61.40639078    89.84022435
 O      1   2   3     6.821075567419   138.52063478    42.39029663
 H     28   1   2     1.549798401457   128.77413631   180.22965539
 N     25   3   2     4.416942031946    74.64251333    36.43716294
 N     25   3   2     4.433607866293    93.77441236   112.55683660
 C     30  25   3     2.803409496708   107.45128349    84.97998737
 H     32  30  25     1.830909280212   109.45924848   279.81994688
 H     32  30  25     1.836033336945   109.36240654   161.60093847
 C     31  25   3     2.795076012408   106.46885236   269.18066035
 H     35  31  25     1.834099096160   109.50689651   284.37081956
 H     35  31  25     1.829742130256   109.61107128   165.86116489
 C     31  25   3     2.837192753319   112.71533119    31.58098150
 H     38  31  25     1.834908020107   107.91160400    57.21007639
 H     38  31  25     1.831718179912   107.99787704   301.65815545
 C     38  31  25     2.852433509028   117.61107777   179.34237402
 C     41  38  31     2.598872480069   121.56772877    91.80909252
 O     42  41  38     2.635171117302   117.98567095   359.83289764
 H     43  42  41     1.550108851478   109.50678151   180.53401661
 C     42  41  38     2.658449430416   122.47678229   176.17311160
 H     45  42  41     1.757885880626   120.08146586   182.48972228
 C     45  42  41     2.508816329126   119.91129686     2.47111182
 H     47  45  42     1.757485028986   119.67790951   176.44730148
 C     26  21  20     2.522175214746    67.22002090   319.98800395
 C     41  38  31     2.603378806201   120.45384866   268.29328885
 H     50  41  38     1.760293120767   120.54276008     2.72212143
 C     31  25   3     2.772460496299   105.94593178   153.29293752
 H     52  31  25     1.833794086405   109.25786927   283.04187412
 H     52  31  25     1.834017318644   109.23447514   165.15531513
 C     30  25   3     2.851418784455   112.66426372   207.73438320
 H     55  30  25     1.832345005992   108.13903569   283.92848052
 H     55  30  25     1.834471488224   108.04095497    39.76933709
 C      1   2   3     2.610964545630   118.64039794    41.18565634
 C      1   2   3     2.532024189054   118.70165400   221.23395895
 C     59   1   2     2.611404859194   119.83129428   178.33744598
 H     60  59   1     1.757428784605   120.46248588   182.48172940
 C     60  59   1     2.617085216041   118.98976446     2.56045283
 H     62  60  59     1.756147640228   119.86297620   178.04724249
 C     28   1   2     2.575000387802    19.27936359   183.54708823
 C     30  25   3     2.786239928297   103.78873578   328.38265330
 H     65  30  25     1.834065704115   109.28696709   286.22076311
 H     65  30  25     1.833355010329   109.30247805   168.22998088
 O     59   1   2     2.614821603845   120.10416458   359.12286567
 H     68  59   1     1.549295702054   109.44022107   155.50556720

---------------------
BASIS SET INFORMATION
---------------------
There are 6 groups of distinct atoms

 Group   1 Type C   : 11s6p2d1f contracted to 5s3p2d1f pattern {62111/411/11/1}
 Group   2 Type H   : 5s1p contracted to 3s1p pattern {311/1}
 Group   3 Type N   : 11s6p2d1f contracted to 5s3p2d1f pattern {62111/411/11/1}
 Group   4 Type Br  : 17s13p8d1f contracted to 6s5p4d1f pattern {842111/64111/5111/1}
 Group   5 Type Mn  : 17s11p7d1f contracted to 6s4p4d1f pattern {842111/6311/4111/1}
 Group   6 Type O   : 11s6p2d1f contracted to 5s3p2d1f pattern {62111/411/11/1}

Atom   0C    basis set group =>   1
Atom   1H    basis set group =>   2
Atom   2N    basis set group =>   3
Atom   3C    basis set group =>   1
Atom   4H    basis set group =>   2
Atom   5C    basis set group =>   1
Atom   6H    basis set group =>   2
Atom   7C    basis set group =>   1
Atom   8H    basis set group =>   2
Atom   9C    basis set group =>   1
Atom  10H    basis set group =>   2
Atom  11C    basis set group =>   1
Atom  12N    basis set group =>   3
Atom  13C    basis set group =>   1
Atom  14H    basis set group =>   2
Atom  15C    basis set group =>   1
Atom  16H    basis set group =>   2
Atom  17C    basis set group =>   1
Atom  18H    basis set group =>   2
Atom  19C    basis set group =>   1
Atom  20H    basis set group =>   2
Atom  21C    basis set group =>   1
Atom  22Br   basis set group =>   4
Atom  23Br   basis set group =>   4
Atom  24Mn   basis set group =>   5
Atom  25O    basis set group =>   6
Atom  26H    basis set group =>   2
Atom  27O    basis set group =>   6
Atom  28H    basis set group =>   2
Atom  29N    basis set group =>   3
Atom  30N    basis set group =>   3
Atom  31C    basis set group =>   1
Atom  32H    basis set group =>   2
Atom  33H    basis set group =>   2
Atom  34C    basis set group =>   1
Atom  35H    basis set group =>   2
Atom  36H    basis set group =>   2
Atom  37C    basis set group =>   1
Atom  38H    basis set group =>   2
Atom  39H    basis set group =>   2
Atom  40C    basis set group =>   1
Atom  41C    basis set group =>   1
Atom  42O    basis set group =>   6
Atom  43H    basis set group =>   2
Atom  44C    basis set group =>   1
Atom  45H    basis set group =>   2
Atom  46C    basis set group =>   1
Atom  47H    basis set group =>   2
Atom  48C    basis set group =>   1
Atom  49C    basis set group =>   1
Atom  50H    basis set group =>   2
Atom  51C    basis set group =>   1
Atom  52H    basis set group =>   2
Atom  53H    basis set group =>   2
Atom  54C    basis set group =>   1
Atom  55H    basis set group =>   2
Atom  56H    basis set group =>   2
Atom  57C    basis set group =>   1
Atom  58C    basis set group =>   1
Atom  59C    basis set group =>   1
Atom  60H    basis set group =>   2
Atom  61C    basis set group =>   1
Atom  62H    basis set group =>   2
Atom  63C    basis set group =>   1
Atom  64C    basis set group =>   1
Atom  65H    basis set group =>   2
Atom  66H    basis set group =>   2
Atom  67O    basis set group =>   6
Atom  68H    basis set group =>   2
---------------------------------
AUXILIARY/J BASIS SET INFORMATION
---------------------------------
There are 6 groups of distinct atoms

 Group   1 Type C   : 12s5p4d2f1g contracted to 6s4p3d1f1g pattern {711111/2111/211/2/1}
 Group   2 Type H   : 5s2p1d contracted to 3s1p1d pattern {311/2/1}
 Group   3 Type N   : 12s5p4d2f1g contracted to 6s4p3d1f1g pattern {711111/2111/211/2/1}
 Group   4 Type Br  : 19s5p5d3f1g contracted to 8s4p3d2f1g pattern {121111111/2111/311/21/1}
 Group   5 Type Mn  : 19s5p5d3f3g contracted to 8s5p5d2f3g pattern {121111111/11111/11111/21/111}
 Group   6 Type O   : 12s5p4d2f1g contracted to 6s4p3d1f1g pattern {711111/2111/211/2/1}

Atom   0C    basis set group =>   1
Atom   1H    basis set group =>   2
Atom   2N    basis set group =>   3
Atom   3C    basis set group =>   1
Atom   4H    basis set group =>   2
Atom   5C    basis set group =>   1
Atom   6H    basis set group =>   2
Atom   7C    basis set group =>   1
Atom   8H    basis set group =>   2
Atom   9C    basis set group =>   1
Atom  10H    basis set group =>   2
Atom  11C    basis set group =>   1
Atom  12N    basis set group =>   3
Atom  13C    basis set group =>   1
Atom  14H    basis set group =>   2
Atom  15C    basis set group =>   1
Atom  16H    basis set group =>   2
Atom  17C    basis set group =>   1
Atom  18H    basis set group =>   2
Atom  19C    basis set group =>   1
Atom  20H    basis set group =>   2
Atom  21C    basis set group =>   1
Atom  22Br   basis set group =>   4
Atom  23Br   basis set group =>   4
Atom  24Mn   basis set group =>   5
Atom  25O    basis set group =>   6
Atom  26H    basis set group =>   2
Atom  27O    basis set group =>   6
Atom  28H    basis set group =>   2
Atom  29N    basis set group =>   3
Atom  30N    basis set group =>   3
Atom  31C    basis set group =>   1
Atom  32H    basis set group =>   2
Atom  33H    basis set group =>   2
Atom  34C    basis set group =>   1
Atom  35H    basis set group =>   2
Atom  36H    basis set group =>   2
Atom  37C    basis set group =>   1
Atom  38H    basis set group =>   2
Atom  39H    basis set group =>   2
Atom  40C    basis set group =>   1
Atom  41C    basis set group =>   1
Atom  42O    basis set group =>   6
Atom  43H    basis set group =>   2
Atom  44C    basis set group =>   1
Atom  45H    basis set group =>   2
Atom  46C    basis set group =>   1
Atom  47H    basis set group =>   2
Atom  48C    basis set group =>   1
Atom  49C    basis set group =>   1
Atom  50H    basis set group =>   2
Atom  51C    basis set group =>   1
Atom  52H    basis set group =>   2
Atom  53H    basis set group =>   2
Atom  54C    basis set group =>   1
Atom  55H    basis set group =>   2
Atom  56H    basis set group =>   2
Atom  57C    basis set group =>   1
Atom  58C    basis set group =>   1
Atom  59C    basis set group =>   1
Atom  60H    basis set group =>   2
Atom  61C    basis set group =>   1
Atom  62H    basis set group =>   2
Atom  63C    basis set group =>   1
Atom  64C    basis set group =>   1
Atom  65H    basis set group =>   2
Atom  66H    basis set group =>   2
Atom  67O    basis set group =>   6
Atom  68H    basis set group =>   2


           ************************************************************
           *        Program running with 16 parallel MPI-processes    *
           *              working on a common directory               *
           ************************************************************
------------------------------------------------------------------------------
                             ORCA STARTUP CALCULATIONS
                           -- RI-GTO INTEGRALS CHOSEN --
------------------------------------------------------------------------------
------------------------------------------------------------------------------
                   ___                                                        
                  /   \      - P O W E R E D   B Y -                         
                 /     \                                                     
                 |  |  |   _    _      __       _____    __    __             
                 |  |  |  | |  | |    /  \     |  _  \  |  |  /  |          
                  \  \/   | |  | |   /    \    | | | |  |  | /  /          
                 / \  \   | |__| |  /  /\  \   | |_| |  |  |/  /          
                |  |  |   |  __  | /  /__\  \  |    /   |      \           
                |  |  |   | |  | | |   __   |  |    \   |  |\   \          
                \     /   | |  | | |  |  |  |  | |\  \  |  | \   \       
                 \___/    |_|  |_| |__|  |__|  |_| \__\ |__|  \__/        
                                                                              
                      - O R C A' S   B I G   F R I E N D -                    
                                      &                                       
                       - I N T E G R A L  F E E D E R -                       
                                                                              
 v1 FN, 2020, v2 2021, v3 2022-2024                                           
------------------------------------------------------------------------------


----------------------
SHARK INTEGRAL PACKAGE
----------------------

Number of atoms                             ...     69
Number of basis functions                   ...   1437
Number of shells                            ...    563
Maximum angular momentum                    ...      3
Integral batch strategy                     ... SHARK/LIBINT Hybrid
RI-J (if used) integral strategy            ... SPLIT-RIJ (Revised 2003 algorithm where possible)
Printlevel                                  ...      1
Contraction scheme used                     ... SEGMENTED contraction
Prescreening option                         ... SCHWARTZ
   Thresh                                   ... 2.500e-11
   Tcut                                     ... 2.500e-12
   Tpresel                                  ... 2.500e-12 
Coulomb Range Separation                    ... NOT USED
Exchange Range Separation                   ... NOT USED
Multipole approximations                    ... NOT USED
Finite Nucleus Model                        ... NOT USED
CABS basis                                  ... NOT available
Auxiliary Coulomb fitting basis             ... AVAILABLE
   # of basis functions in Aux-J            ...   2299
   # of shells in Aux-J                     ...    749
   Maximum angular momentum in Aux-J        ...      4
Auxiliary J/K fitting basis                 ... NOT available
Auxiliary Correlation fitting basis         ... NOT available
Auxiliary 'external' fitting basis          ... NOT available

Checking pre-screening integrals            ... done (  0.0 sec) Dimension = 563
Check shell pair data                       ... done (  0.0 sec)
Shell pair information
Shell pair cut-off parameter TPreSel        ...   2.5e-12
Total number of shell pairs                 ...    158766
Shell pairs after pre-screening             ...     93516
Total number of primitive shell pairs       ...    515678
Primitive shell pairs kept                  ...    185370
          la=0 lb=0:  24122 shell pairs
          la=1 lb=0:  27426 shell pairs
          la=1 lb=1:   7885 shell pairs
          la=2 lb=0:  13428 shell pairs
          la=2 lb=1:   7825 shell pairs
          la=2 lb=2:   1927 shell pairs
          la=3 lb=0:   5673 shell pairs
          la=3 lb=1:   3346 shell pairs
          la=3 lb=2:   1555 shell pairs
          la=3 lb=3:    329 shell pairs

Calculating one electron integrals          ... done (  0.1 sec)
done (  0.3 sec)
Calculating Nuclear repulsion               ... done (  0.0 sec) ENN=   7003.645010496227 Eh

Diagonalization of the overlap matrix:
Smallest eigenvalue                        ... 6.251e-06
Time for diagonalization                   ...    0.191 sec
Threshold for overlap eigenvalues          ... 1.000e-07
Number of eigenvalues below threshold      ... 0
Time for construction of square roots      ...    0.233 sec
Total time needed                          ...    0.452 sec

-------------------
DFT GRID GENERATION
-------------------

General Integration Accuracy     IntAcc      ... 4.959
Radial Grid Type                 RadialGrid  ... OptM3 with GC (2021)
Angular Grid (max. ang.)         AngularGrid ... 6 (Lebedev-590)
Angular grid pruning method      GridPruning ... 4 (adaptive)
Weight generation scheme         WeightScheme... mBecke (2022)
Basis function cutoff            BFCut       ... 1.0000e-11
Integration weight cutoff        WCut        ... 1.0000e-14
Partially contracted basis set               ... off
Rotationally invariant grid construction     ... off
Angular grids for H and He will be reduced by one unit
Core-polarized basis detected: some atoms will have their core
                               angular grid increased.

Total number of grid points                  ...   836695
Total number of batches                      ...    13110
Average number of points per batch           ...       63
Average number of grid points per atom       ...    12126

--------------------
COSX GRID GENERATION
--------------------

GRIDX 1
-------
General Integration Accuracy     IntAcc      ... 4.020
Radial Grid Type                 RadialGrid  ... OptM3 with GC (2021)
Angular Grid (max. ang.)         AngularGrid ... 2 (Lebedev-110)
Angular grid pruning method      GridPruning ... 4 (adaptive)
Weight generation scheme         WeightScheme... mBecke (2022)
Basis function cutoff            BFCut       ... 1.0000e-11
Integration weight cutoff        WCut        ... 1.0000e-14
Partially contracted basis set               ... on
Rotationally invariant grid construction     ... off
Angular grids for H and He will be reduced by one unit
Core-polarized basis detected: some atoms will have their core
                               angular grid increased.

Total number of grid points                  ...   100358
Total number of batches                      ...      819
Average number of points per batch           ...      122
Average number of grid points per atom       ...     1454
UseSFitting                                  ... on

GRIDX 2
-------
General Integration Accuracy     IntAcc      ... 4.338
Radial Grid Type                 RadialGrid  ... OptM3 with GC (2021)
Angular Grid (max. ang.)         AngularGrid ... 3 (Lebedev-194)
Angular grid pruning method      GridPruning ... 4 (adaptive)
Weight generation scheme         WeightScheme... mBecke (2022)
Basis function cutoff            BFCut       ... 1.0000e-11
Integration weight cutoff        WCut        ... 1.0000e-14
Partially contracted basis set               ... on
Rotationally invariant grid construction     ... off
Angular grids for H and He will be reduced by one unit
Core-polarized basis detected: some atoms will have their core
                               angular grid increased.

Total number of grid points                  ...   198268
Total number of batches                      ...     1583
Average number of points per batch           ...      125
Average number of grid points per atom       ...     2873
UseSFitting                                  ... on

GRIDX 3
-------
General Integration Accuracy     IntAcc      ... 4.871
Radial Grid Type                 RadialGrid  ... OptM3 with GC (2021)
Angular Grid (max. ang.)         AngularGrid ... 4 (Lebedev-302)
Angular grid pruning method      GridPruning ... 4 (adaptive)
Weight generation scheme         WeightScheme... mBecke (2022)
Basis function cutoff            BFCut       ... 1.0000e-11
Integration weight cutoff        WCut        ... 1.0000e-14
Partially contracted basis set               ... on
Rotationally invariant grid construction     ... off
Angular grids for H and He will be reduced by one unit
Core-polarized basis detected: some atoms will have their core
                               angular grid increased.

Total number of grid points                  ...   370645
Total number of batches                      ...     2932
Average number of points per batch           ...      126
Average number of grid points per atom       ...     5372
UseSFitting                                  ... on
Initializing property integral containers    ... done (  0.0 sec)

SHARK setup successfully completed in  17.3 seconds

Maximum memory used throughout the entire STARTUP-calculation: 316.2 MB


           ************************************************************
           *        Program running with 16 parallel MPI-processes    *
           *              working on a common directory               *
           ************************************************************
-------------------------------------------------------------------------------
                                 ORCA GUESS
                   Start orbitals & Density for SCF / CASSCF
-------------------------------------------------------------------------------

------------
SCF SETTINGS
------------
Hamiltonian:
 Density Functional     Method          .... DFT(GTOs)
 Exchange Functional    Exchange        .... PBE
   PBE kappa parameter   XKappa         ....  0.804000
   PBE mue parameter    XMuePBE         ....  0.219520
 Correlation Functional Correlation     .... PBE
   PBE beta parameter  CBetaPBE         ....  0.066725
 LDA part of GGA corr.  LDAOpt          .... PW91-LDA
 Gradients option       PostSCFGGA      .... off
 Hybrid DFT is turned on
   Fraction HF Exchange ScalHFX         ....  0.250000
   Scaling of DF-GGA-X  ScalDFX         ....  0.750000
   Scaling of DF-GGA-C  ScalDFC         ....  1.000000
   Scaling of DF-LDA-C  ScalLDAC        ....  1.000000
   Perturbative correction              ....  0.000000
   NL short-range parameter             ....  6.900000
 RI-approximation to the Coulomb term is turned on
[...]
206:   3868.12   0.015226   76.95  0.001228  (-0.007897  0.008752  0.033007)

* The epsilon (eps) is given for a Dirac delta lineshape.
** The dipole moment derivative (T) already includes vibrational overlap.

The first frequency considered to be a vibration is 6
The total number of vibrations considered is 201


--------------------------
THERMOCHEMISTRY AT 298.15K
--------------------------

Temperature         ...   298.15 K
Pressure            ...     1.00 atm
Total Mass          ...   701.31 AMU
Quasi RRHO          ...     True
Cut-Off Frequency   ...     1.00 cm^-1

Throughout the following assumptions are being made:
  (1) The electronic state is orbitally nondegenerate
      but the spin degeneracy is treated
  (2) There are no thermally accessible electronically excited states
  (3) Hindered rotations indicated by low frequency modes are not
      treated as such but are treated as vibrations and this may
      cause some error
  (4) All equations used are the standard statistical mechanics
      equations for an ideal gas
  (5) All vibrations are strictly harmonic

freq.      17.13  E(vib)   ...       0.57 
freq.      25.67  E(vib)   ...       0.56 
freq.      28.58  E(vib)   ...       0.55 
freq.      33.44  E(vib)   ...       0.55 
freq.      46.68  E(vib)   ...       0.53 
freq.      47.15  E(vib)   ...       0.53 
freq.      49.23  E(vib)   ...       0.52 
freq.      52.14  E(vib)   ...       0.52 
freq.      66.54  E(vib)   ...       0.50 
freq.      69.27  E(vib)   ...       0.50 
freq.      83.02  E(vib)   ...       0.48 
freq.      87.50  E(vib)   ...       0.48 
freq.      94.07  E(vib)   ...       0.47 
freq.     101.44  E(vib)   ...       0.46 
freq.     104.46  E(vib)   ...       0.46 
freq.     117.22  E(vib)   ...       0.44 
freq.     119.32  E(vib)   ...       0.44 
freq.     136.10  E(vib)   ...       0.42 
freq.     144.92  E(vib)   ...       0.41 
freq.     150.00  E(vib)   ...       0.40 
freq.     153.02  E(vib)   ...       0.40 
freq.     161.80  E(vib)   ...       0.39 
freq.     174.74  E(vib)   ...       0.38 
freq.     197.09  E(vib)   ...       0.35 
freq.     208.53  E(vib)   ...       0.34 
freq.     219.07  E(vib)   ...       0.33 
freq.     225.74  E(vib)   ...       0.33 
freq.     246.10  E(vib)   ...       0.31 
freq.     248.37  E(vib)   ...       0.31 
freq.     253.39  E(vib)   ...       0.30 
freq.     281.04  E(vib)   ...       0.28 
freq.     294.88  E(vib)   ...       0.27 
freq.     297.56  E(vib)   ...       0.27 
freq.     304.56  E(vib)   ...       0.26 
freq.     308.61  E(vib)   ...       0.26 
freq.     325.72  E(vib)   ...       0.24 
freq.     327.85  E(vib)   ...       0.24 
freq.     337.96  E(vib)   ...       0.24 
freq.     347.86  E(vib)   ...       0.23 
freq.     356.81  E(vib)   ...       0.22 
freq.     360.84  E(vib)   ...       0.22 
freq.     378.68  E(vib)   ...       0.21 
freq.     381.28  E(vib)   ...       0.21 
freq.     382.44  E(vib)   ...       0.21 
freq.     389.90  E(vib)   ...       0.20 
freq.     410.75  E(vib)   ...       0.19 
freq.     437.23  E(vib)   ...       0.17 
freq.     447.15  E(vib)   ...       0.17 
freq.     449.60  E(vib)   ...       0.17 
freq.     456.18  E(vib)   ...       0.16 
freq.     458.54  E(vib)   ...       0.16 
freq.     461.65  E(vib)   ...       0.16 
freq.     471.57  E(vib)   ...       0.15 
freq.     493.77  E(vib)   ...       0.14 
freq.     497.90  E(vib)   ...       0.14 
freq.     503.41  E(vib)   ...       0.14 
freq.     509.61  E(vib)   ...       0.14 
freq.     524.28  E(vib)   ...       0.13 
freq.     530.90  E(vib)   ...       0.13 
freq.     576.76  E(vib)   ...       0.11 
freq.     583.60  E(vib)   ...       0.11 
freq.     596.30  E(vib)   ...       0.10 
freq.     634.62  E(vib)   ...       0.09 
freq.     641.89  E(vib)   ...       0.09 
freq.     648.56  E(vib)   ...       0.08 
freq.     658.00  E(vib)   ...       0.08 
freq.     681.42  E(vib)   ...       0.08 
freq.     683.79  E(vib)   ...       0.07 
freq.     733.67  E(vib)   ...       0.06 
freq.     736.06  E(vib)   ...       0.06 
freq.     752.49  E(vib)   ...       0.06 
freq.     754.39  E(vib)   ...       0.06 
freq.     772.50  E(vib)   ...       0.05 
freq.     774.66  E(vib)   ...       0.05 
freq.     775.54  E(vib)   ...       0.05 
freq.     780.54  E(vib)   ...       0.05 
freq.     800.51  E(vib)   ...       0.05 
freq.     805.65  E(vib)   ...       0.05 
freq.     808.69  E(vib)   ...       0.05 
freq.     819.19  E(vib)   ...       0.05 
freq.     827.86  E(vib)   ...       0.04 
freq.     837.56  E(vib)   ...       0.04 
freq.     860.30  E(vib)   ...       0.04 
freq.     870.94  E(vib)   ...       0.04 
freq.     882.56  E(vib)   ...       0.04 
freq.     893.15  E(vib)   ...       0.03 
freq.     905.24  E(vib)   ...       0.03 
freq.     908.12  E(vib)   ...       0.03 
freq.     923.44  E(vib)   ...       0.03 
freq.     926.45  E(vib)   ...       0.03 
freq.     946.49  E(vib)   ...       0.03 
freq.     957.69  E(vib)   ...       0.03 
freq.     965.15  E(vib)   ...       0.03 
freq.     979.73  E(vib)   ...       0.03 
freq.     985.27  E(vib)   ...       0.02 
freq.     993.17  E(vib)   ...       0.02 
freq.     996.81  E(vib)   ...       0.02 
freq.    1008.04  E(vib)   ...       0.02 
freq.    1012.12  E(vib)   ...       0.02 
freq.    1020.91  E(vib)   ...       0.02 
freq.    1029.23  E(vib)   ...       0.02 
freq.    1035.56  E(vib)   ...       0.02 
freq.    1039.30  E(vib)   ...       0.02 
freq.    1045.43  E(vib)   ...       0.02 
freq.    1073.91  E(vib)   ...       0.02 
freq.    1087.55  E(vib)   ...       0.02 
freq.    1088.70  E(vib)   ...       0.02 
freq.    1108.14  E(vib)   ...       0.02 
freq.    1117.07  E(vib)   ...       0.01 
freq.    1119.56  E(vib)   ...       0.01 
freq.    1134.07  E(vib)   ...       0.01 
freq.    1136.59  E(vib)   ...       0.01 
freq.    1141.40  E(vib)   ...       0.01 
freq.    1154.35  E(vib)   ...       0.01 
freq.    1175.73  E(vib)   ...       0.01 
freq.    1176.98  E(vib)   ...       0.01 
freq.    1177.40  E(vib)   ...       0.01 
freq.    1177.81  E(vib)   ...       0.01 
freq.    1191.14  E(vib)   ...       0.01 
freq.    1196.52  E(vib)   ...       0.01 
freq.    1200.90  E(vib)   ...       0.01 
freq.    1209.87  E(vib)   ...       0.01 
freq.    1210.03  E(vib)   ...       0.01 
freq.    1246.44  E(vib)   ...       0.01 
freq.    1248.64  E(vib)   ...       0.01 
freq.    1255.73  E(vib)   ...       0.01 
freq.    1277.24  E(vib)   ...       0.01 
freq.    1282.31  E(vib)   ...       0.01 
freq.    1286.66  E(vib)   ...       0.01 
freq.    1298.28  E(vib)   ...       0.01 
freq.    1309.33  E(vib)   ...       0.01 
freq.    1310.83  E(vib)   ...       0.01 
freq.    1319.38  E(vib)   ...       0.01 
freq.    1326.05  E(vib)   ...       0.01 
freq.    1326.82  E(vib)   ...       0.01 
freq.    1332.91  E(vib)   ...       0.01 
freq.    1337.26  E(vib)   ...       0.01 
freq.    1342.11  E(vib)   ...       0.01 
freq.    1352.76  E(vib)   ...       0.01 
freq.    1362.16  E(vib)   ...       0.01 
freq.    1367.53  E(vib)   ...       0.01 
freq.    1373.67  E(vib)   ...       0.01 
freq.    1376.85  E(vib)   ...       0.01 
freq.    1387.11  E(vib)   ...       0.00 
freq.    1392.80  E(vib)   ...       0.00 
freq.    1394.73  E(vib)   ...       0.00 
freq.    1404.04  E(vib)   ...       0.00 
freq.    1410.19  E(vib)   ...       0.00 
freq.    1422.62  E(vib)   ...       0.00 
freq.    1452.66  E(vib)   ...       0.00 
freq.    1458.89  E(vib)   ...       0.00 
freq.    1478.27  E(vib)   ...       0.00 
freq.    1480.99  E(vib)   ...       0.00 
freq.    1484.28  E(vib)   ...       0.00 
freq.    1486.41  E(vib)   ...       0.00 
freq.    1493.13  E(vib)   ...       0.00 
freq.    1496.96  E(vib)   ...       0.00 
freq.    1498.39  E(vib)   ...       0.00 
freq.    1511.80  E(vib)   ...       0.00 
freq.    1521.42  E(vib)   ...       0.00 
freq.    1524.48  E(vib)   ...       0.00 
freq.    1554.18  E(vib)   ...       0.00 
freq.    1564.07  E(vib)   ...       0.00 
freq.    1623.70  E(vib)   ...       0.00 
freq.    1638.57  E(vib)   ...       0.00 
freq.    1664.62  E(vib)   ...       0.00 
freq.    1668.87  E(vib)   ...       0.00 
freq.    1673.79  E(vib)   ...       0.00 
freq.    1678.42  E(vib)   ...       0.00 
freq.    1685.84  E(vib)   ...       0.00 
freq.    1693.29  E(vib)   ...       0.00 
freq.    3002.76  E(vib)   ...       0.00 
freq.    3018.50  E(vib)   ...       0.00 
freq.    3044.06  E(vib)   ...       0.00 
freq.    3056.50  E(vib)   ...       0.00 
freq.    3066.55  E(vib)   ...       0.00 
freq.    3069.12  E(vib)   ...       0.00 
freq.    3072.06  E(vib)   ...       0.00 
freq.    3076.98  E(vib)   ...       0.00 
freq.    3101.79  E(vib)   ...       0.00 
freq.    3118.68  E(vib)   ...       0.00 
freq.    3133.22  E(vib)   ...       0.00 
freq.    3149.07  E(vib)   ...       0.00 
freq.    3165.35  E(vib)   ...       0.00 
freq.    3168.16  E(vib)   ...       0.00 
freq.    3169.84  E(vib)   ...       0.00 
freq.    3180.84  E(vib)   ...       0.00 
freq.    3183.75  E(vib)   ...       0.00 
freq.    3185.60  E(vib)   ...       0.00 
freq.    3196.53  E(vib)   ...       0.00 
freq.    3197.28  E(vib)   ...       0.00 
freq.    3202.56  E(vib)   ...       0.00 
freq.    3210.74  E(vib)   ...       0.00 
freq.    3214.09  E(vib)   ...       0.00 
freq.    3216.84  E(vib)   ...       0.00 
freq.    3224.44  E(vib)   ...       0.00 
freq.    3225.67  E(vib)   ...       0.00 
freq.    3860.71  E(vib)   ...       0.00 
freq.    3865.30  E(vib)   ...       0.00 
freq.    3867.89  E(vib)   ...       0.00 
freq.    3868.12  E(vib)   ...       0.00 

------------
INNER ENERGY
------------

The inner energy is: U= E(el) + E(ZPE) + E(vib) + E(rot) + E(trans)
    E(el)   - is the total energy from the electronic structure calculation
              = E(kin-el) + E(nuc-el) + E(el-el) + E(nuc-nuc)
    E(ZPE)  - the the zero temperature vibrational energy from the frequency calculation
    E(vib)  - the the finite temperature correction to E(ZPE) due to population
              of excited vibrational states
    E(rot)  - is the rotational thermal energy
    E(trans)- is the translational thermal energy

Summary of contributions to the inner energy U:
Electronic energy                ...  -7902.34556396 Eh
Zero point energy                ...      0.54978525 Eh     344.99 kcal/mol
Thermal vibrational correction   ...      0.03429147 Eh      21.52 kcal/mol
Thermal rotational correction    ...      0.00141627 Eh       0.89 kcal/mol
Thermal translational correction ...      0.00141627 Eh       0.89 kcal/mol
-----------------------------------------------------------------------
Total thermal energy                  -7901.75865470 Eh


Summary of corrections to the electronic energy:
(perhaps to be used in another calculation)
Total thermal correction                  0.03712401 Eh      23.30 kcal/mol
Non-thermal (ZPE) correction              0.54978525 Eh     344.99 kcal/mol
-----------------------------------------------------------------------
Total correction                          0.58690926 Eh     368.29 kcal/mol


--------
ENTHALPY
--------

The enthalpy is H = U + kB*T
                kB is Boltzmann's constant
Total thermal energy              ...  -7901.75865470 Eh 
Thermal Enthalpy correction       ...      0.00094421 Eh       0.59 kcal/mol
-----------------------------------------------------------------------
Total Enthalpy                    ...  -7901.75771049 Eh


Note: Only C1 symmetry has been detected, increase convergence thresholds 
      if your molecule has a higher symmetry. Symmetry factor of 1.0 is   
      used for the rotational entropy correction. 
 

Note: Rotational entropy computed according to Herzberg 
Infrared and Raman Spectra, Chapter V,1, Van Nostrand Reinhold, 1945 
Point Group:  C1, Symmetry Number:   1  
Rotational constants in cm-1:     0.002884     0.001999     0.001746 

Vibrational entropy computed according to the QRRHO of S. Grimme
Chem.Eur.J. 2012 18 9955 using a reference frequency of 100.0 cm-1


-------
ENTROPY
-------

The entropy contributions are T*S = T*(S(el)+S(vib)+S(rot)+S(trans))
     S(el)   - electronic entropy
     S(vib)  - vibrational entropy
     S(rot)  - rotational entropy
     S(trans)- translational entropy
The entropies will be listed as multiplied by the temperature to get
units of energy

Electronic entropy                ...      0.00130891 Eh      0.82 kcal/mol
Vibrational entropy               ...      0.06124928 Eh     38.43 kcal/mol
Rotational entropy                ...      0.01820398 Eh     11.42 kcal/mol
Translational entropy             ...      0.02162983 Eh     13.57 kcal/mol
-----------------------------------------------------------------------
Final entropy term                ...      0.10239200 Eh     64.25 kcal/mol

In case the symmetry of your molecule has not been determined correctly
or in case you have a reason to use a different symmetry number we print 
out the resulting rotational entropy values for sn=1,12:

 non-linear molecules -----------------------------------
|  sn= 1 | S(rot)=       0.01820398 Eh     11.42 kcal/mol|
|  sn= 2 | S(rot)=       0.01754953 Eh     11.01 kcal/mol|
|  sn= 3 | S(rot)=       0.01716669 Eh     10.77 kcal/mol|
|  sn= 4 | S(rot)=       0.01689507 Eh     10.60 kcal/mol|
|  sn= 5 | S(rot)=       0.01668438 Eh     10.47 kcal/mol|
|  sn= 6 | S(rot)=       0.01651224 Eh     10.36 kcal/mol|
|  sn= 7 | S(rot)=       0.01636669 Eh     10.27 kcal/mol|
|  sn= 8 | S(rot)=       0.01624061 Eh     10.19 kcal/mol|
|  sn= 9 | S(rot)=       0.01612940 Eh     10.12 kcal/mol|
|  sn=10 | S(rot)=       0.01602992 Eh     10.06 kcal/mol|
|  sn=11 | S(rot)=       0.01593993 Eh     10.00 kcal/mol|
|  sn=12 | S(rot)=       0.01585778 Eh      9.95 kcal/mol|
 linear molecules ---------------------------------------
|  Dinfh | S(rot)=       0.01132168 Eh      7.10 kcal/mol|
|  Cinfv | S(rot)=       0.01197614 Eh      7.52 kcal/mol|
 --------------------------------------------------------


-------------------
GIBBS FREE ENERGY
-------------------

The Gibbs free energy is G = H - T*S

Total enthalpy                    ...  -7901.75771049 Eh 
Total entropy correction          ...     -0.10239200 Eh    -64.25 kcal/mol
-----------------------------------------------------------------------
Final Gibbs free energy         ...  -7901.86010249 Eh

For completeness - the Gibbs free energy minus the electronic energy
G-E(el)                           ...      0.48546147 Eh    304.63 kcal/mol


Maximum memory used throughout the entire PROP-calculation: 1550.8 MB

--------------------------------
SUGGESTED CITATIONS FOR THIS RUN
--------------------------------

Below you find a list of papers that are relevant to this ORCA run
We neither can nor want to force you to cite these papers, but we appreciate if you do
You receive ORCA, which is the product of decades of hard work by many enthusiastic individuals, for free
The only thing we kindly ask in return is that you cite our papers,
We deeply appreciate it, if you show your appreciation for ORCA by not just citing the generic ORCA reference.

Please note that relegating all ORCA citations to the supporting information does *not* help us.
SI sections are not indexed - citations you put there will not count into any citation statistics
But we need these citations in order to attract the funding resources that allow us to do what we are doing

Therefore, if you are a happy ORCA user, please consider citing a few of the papers listed below in the main body of your paper

In addition to the list printed below, the program has created the file KASNUQ-S6.bibtex that contains the list in bibtex format
You can import this file easily into all common literature databanks and citation aid programs


List of essential papers. We consider these as the minimum necessary citations

  1. Neese,F.
     Software update: the ORCA program system, version 5.0
     WIRES Comput. Molec. Sci., 2022 12(1)e1606
     doi.org/10.1002/wcms.1606

List of papers to cite with high priority. The work reported in these papers was absolutely
necessary for this run to complete.
Our perspective: the developers of density functionals and basis sets usually get cited in chemistry papers
Good! But without the algorithms to do something with them, the functionals or basis sets would not do anything.
Hence, in our opinion, the algorithm design and method developments papers are equally worthy of getting cited

  1. Neese,F.
     An improvement of the resolution of the identity approximation for the formation of the Coulomb matrix
     J. Comp. Chem., 2003 24(14)1740-1747
     doi.org/10.1002/jcc.10318
  2. Neese,F.; Wennmohs,F.; Hansen,A.; Becker,U.
     Efficient, approximate and parallel Hartree-Fock and hybrid DFT calculations. A 'chain-of-spheres' algorithm for the Hartree-Fock exchange
     Chem. Phys., 2009 356(1-3)98-109
     doi.org/10.1016/j.chemphys.2008.10.036
  3. Bykov,D.; Petrenko,T.; Izsak,R.; Kossmann,S.; Becker,U.; Valeev,E.; Neese,F.
     Efficient implementation of the analytic second derivatives of Hartree-Fock and hybrid DFT energies: a detailed analysis of different approximations
     Molec. Phys., 2015 113 1961-1977
     doi.org/10.1080/00268976.2015.1025114
  4. Helmich-Paris,B.; de Souza,B.; Neese,F.; Izsák,R.
     An improved chain of spheres for exchange algorithm
     J. Chem. Phys., 2021 155 104109
     doi.org/doi: 10.1063/5.0058766.
  5. Neese,F.
     The SHARK Integral Generation and Digestion System
     J. Comp. Chem., 2022  1-16
     doi.org/10.1002/jcc.26942

List of suggested additional citations. These are papers that are important in the 'surrounding' of 
of this run, or papers that preceded the highly important papers. If you like your results we are grateful for a citation.

  1. Izsak,R.; Neese,F.
     An overlap fitted chain of spheres exchange method
     J. Chem. Phys., 2011 135 144105
     doi.org/10.1063/1.3646921
  2. Izsak,R.; Hansen,A.; Neese,F.
     The resolution of identity and chain of spheres approximations for the LPNO-CCSD singles Fock term
     Molec. Phys., 2012 110 2413-2417
     doi.org/10.1080/00268976.2012.687466
  3. Neese,F.
     The ORCA program system
     WIRES Comput. Molec. Sci., 2012 2(1)73-78
     doi.org/10.1002/wcms.81
  4. Izsak,R.; Neese,F.; Klopper,W.
     Robust fitting techniques in the chain of spheres approximation to the Fock exchange: The role of the complementary space
     J. Chem. Phys., 2013 139 
     doi.org/10.1063/1.4819264
  5. Neese,F.
     Software update: the ORCA program system, version 4.0
     WIRES Comput. Molec. Sci., 2018 8(1)1-6
     doi.org/10.1002/wcms.1327
  6. Neese,F.; Wennmohs,F.; Becker,U.; Riplinger,C.
     The ORCA quantum chemistry program package
     J. Chem. Phys., 2020 152 Art. No. L224108
     doi.org/10.1063/5.0004608

List of optional additional citations

  1. Neese,F.
     Approximate second-order SCF convergence for spin unrestricted wavefunctions
     Chem. Phys. Lett., 2000 325(1-3)93-98
     doi.org/10.1016/s0009-2614(00)00662-x

Timings for individual modules:

Sum of individual times          ...    67514.248 sec (=1125.237 min)
Startup calculation              ...      353.344 sec (=   5.889 min)   0.5 %
SCF iterations                   ...    13342.517 sec (= 222.375 min)  19.8 %
Property integrals               ...    11242.423 sec (= 187.374 min)  16.7 %
SCF Response                     ...    37911.244 sec (= 631.854 min)  56.2 %
Property calculations            ...     2697.577 sec (=  44.960 min)   4.0 %
SCF Gradient evaluation          ...     1966.028 sec (=  32.767 min)   2.9 %
Geometry relaxation              ...        1.115 sec (=   0.019 min)   0.0 %
                             ****ORCA TERMINATED NORMALLY****
TOTAL RUN TIME: 0 days 18 hours 45 minutes 42 seconds 625 msec
