
                                 *****************
                                 * O   R   C   A *
                                 *****************

                                            #,                                       
                                            ###                                      
                                            ####                                     
                                            #####                                    
                                            ######                                   
                                           ########,                                 
                                     ,,################,,,,,                         
                               ,,#################################,,                 
                          ,,##########################################,,             
                       ,#########################################, ''#####,          
                    ,#############################################,,   '####,        
                  ,##################################################,,,,####,       
                ,###########''''           ''''###############################       
              ,#####''   ,,,,##########,,,,          '''####'''          '####       
            ,##' ,,,,###########################,,,                        '##       
           ' ,,###''''                  '''############,,,                           
         ,,##''                                '''############,,,,        ,,,,,,###''
      ,#''                                            '''#######################'''  
     '                                                          ''''####''''         
             ,#######,   #######,   ,#######,      ##                                
            ,#'     '#,  ##    ##  ,#'     '#,    #''#        ,####,   ,####,        
            ##       ##  ##   ,#'  ##            #'  '#       #'       #'  '#        
            ##       ##  #######   ##           ,######,      #####,   #    #        
            '#,     ,#'  ##    ##  '#,     ,#' ,#      #,     #,   #   #,  ,#        
             '#######'   ##     ##  '#######'  #'      '#     '####' # '####'        



                #########################################################
                #                        -***-                          #
                #          Department of theory and spectroscopy        #
                #                                                       #
                #                      Frank Neese                      #
                #                                                       #
                #     Directorship, Architecture, Infrastructure        #
                #                    SHARK, DRIVERS                     #
                #        Core code/Algorithms in most modules           #
                #                                                       #
                #        Max Planck Institute fuer Kohlenforschung      #
                #                Kaiser Wilhelm Platz 1                 #
                #                 D-45470 Muelheim/Ruhr                 #
                #                      Germany                          #
                #                                                       #
                #                  All rights reserved                  #
                #                        -***-                          #
                #########################################################


                         Program Version 6.0.1  -  RELEASE   -


 With contributions from (in alphabetic order):
[Max-Planck-Institut fuer Kohlenforschung]                               
  Daniel Aravena         : Magnetic Suceptibility                        
  Michael Atanasov       : Ab Initio Ligand Field Theory (pilot matlab implementation)
  Alexander A. Auer      : GIAO ZORA, VPT2 properties, NMR spectrum      
  Ute Becker             : All parallelization in ORCA, NUMFREQ, NUMCALC 
  Giovanni Bistoni       : ED, misc. LED, open-shell LED, HFLD           
  Martin Brehm           : Molecular dynamics                            
  Dmytro Bykov           : pre 5.0 version of the SCF Hessian            
  Marcos Casanova-Páez   : Triplet and SCS-CIS(D). UHF-(DLPNO)-IP/EA/STEOM-CCSD. UHF-CVS-IP/STEOM-CCSD   
  Vijay G. Chilkuri      : MRCI spin determinant printing, contributions to CSF-ICE 
  Pauline Colinet        : FMM embedding                                 
  Dipayan Datta          : RHF DLPNO-CCSD density                        
  Achintya Kumar Dutta   : EOM-CC, STEOM-CC                              
  Nicolas Foglia         : Exact transition moments, OPA infrastructure, MCD improvements    
  Dmitry Ganyushin       : Spin-Orbit,Spin-Spin,Magnetic field MRCI      
  Miquel Garcia-Rates    : C-PCM and meta-GGA Hessian, CCSD/C-PCM, Gaussian charge scheme 
  Tiago L. C. Gouveia    : GS-ROHF, GS-ROCIS                             
  Yang Guo               : DLPNO-NEVPT2, F12-NEVPT2, CIM, IAO-localization        
  Andreas Hansen         : Spin unrestricted coupled pair/coupled cluster methods 
  Ingolf Harden          : AUTO-CI MPn and infrastructure                
  Benjamin Helmich-Paris : MC-RPA, TRAH-(SCF,CASSCF), AVAS, COSX integrals, SCF dyn. polar. 
  Lee Huntington         : MR-EOM, pCC                                   
  Robert Izsak           : Overlap fitted RIJCOSX, COSX-SCS-MP3, EOM     
  Riya Kayal             : Wick's Theorem for AUTO-CI, AUTO-CI UHF-CCSDT 
  Emily Kempfer          : AUTO-CI, RHF CISDT and CCSDT                  
  Christian Kollmar      : KDIIS, OOCD, Brueckner-CCSD(T), CCSD density, CASPT2, CASPT2-K, improved NEVPT2 
  Axel Koslowski         : Symmetry handling                             
  Simone Kossmann        : meta-GGA functionals, TD-DFT gradient, OOMP2, (MP2 Hessian; deprecated post 5.0) 
  Lucas Lang             : DCDCAS                                        
  Marvin Lechner         : AUTO-CI (C++ implementation), FIC-MRCC        
  Spencer Leger          : CASSCF response                               
  Dagmar Lenk            : GEPOL surface, SMD, ORCA-2-JSON               
  Dimitrios Liakos       : Extrapolation schemes; Compound Job, initial MDCI parallelization 
  Dimitrios Manganas     : Further ROCIS development; embedding schemes. LFT, Crystal Embedding 
  Dimitrios Pantazis     : SARC Basis sets                               
  Anastasios Papadopoulos: AUTO-CI, single reference methods and gradients 
  Taras Petrenko         : pre 6.0 DFT Hessian and TD-DFT gradient, (ASA, deprecated), ECA, 1-Electron XAS/XES, NRVS 
  Peter Pinski           : DLPNO-MP2, DLPNO-MP2 Gradient                 
  Christoph Reimann      : Effective Core Potentials                     
  Marius Retegan         : Local ZFS, SOC                                
  Christoph Riplinger    : Optimizer, TS searches, QM/MM, DLPNO-CCSD(T), (RO)-DLPNO pert. Triples 
  Michael Roemelt        : Original ROCIS implementation                 
  Masaaki Saitow         : Open-shell DLPNO-CCSD energy and density      
  Barbara Sandhoefer     : DKH picture change effects                    
  Kantharuban Sivalingam : CASSCF convergence/infrastructure, NEVPT2 and variants, FIC-MRCI 
  Bernardo de Souza      : ESD, SOC TD-DFT                               
  Georgi L. Stoychev     : AutoAux, RI-MP2 NMR, DLPNO-MP2 response, X2C  
  Van Anh Tran           : RI-MP2 g-tensors                              
  Willem Van den Heuvel  : Paramagnetic NMR                              
  Zikuan Wang            : NOTCH, Electric field optimization            
  Frank Wennmohs         : Technical directorship and infrastructure     
  Hang Xu                : AUTO-CI-Response properties                   
                                                                         
[FACCTs GmbH]                                                            
  Markus Bursch, Miquel Garcia-Rates, Christoph Riplinger, Bernardo de Souza, Georgi L. Stoychev 
                                                                 
  APM, Basis sets (HGBS, AHGBS, def-TZVP (Ac-Lr), def2-XVPD (La-Lu)), CI-OPT, improved COSX, DLPNO-Multilevel,           
  DOCKER, DRACO, updates on ESD, GOAT, IRC, LR-CPCM, MBIS, meta-GGA TD-DFT gradient, ML-optimized integration grids, 
  MM, NACMEs, nearIR, NEB, NEB-TS, NL-DFT gradient (VV10), 2- and 3-layer-ONIOM, interface openCOSMO-RS, QMMM,   
  Crystal-QMMM, SF, symmetry and pop. for TD-DFT, r2SCAN hybrids, SOLVATOR                                   
                                                                         
[Other institutions]                                                     
  V. Asgeirsson          : NEB                                           
  Christoph Bannwarth    : sTDA-DFT, sTD-DFT, PBEh-3c, B97-3c, D3        
  Sebastian Ehlert       : rSCAN, r2SCAN, r2SCAN-3c, D4, dhf basis sets  
  Marvin Friede          : D4 for Fr, Ra, Ac-Lr                          
  Lars Goerigk           : TD-DFT with DH, B97 family of functionals     
  Stefan Grimme          : VdW corrections, initial TS optimization, DFT functionals, gCP, sTDA/sTD-DF 
  Waldemar Hujo          : DFT-NL                                        
  H. Jonsson             : NEB                                           
  Holger Kruse           : gCP                                           
  Marcel Mueller         : wB97X-3c, vDZP basis set                      
  Hagen Neugebauer       : wr2SCAN                                       
  Tobias Risthaus        : range-separated hybrid DFT                    
  Lukas Wittmann         : regularized MP2, r2SCAN double-hybrids, wr2SCAN        
                                                                         
We gratefully acknowledge several colleagues who have allowed us to      
interface, adapt or use parts of their codes:                            
  Ed Valeev, F. Pavosevic, A. Kumar             : LibInt (2-el integral package), F12 methods 
  Garnet Chan, S. Sharma, J. Yang, R. Olivares  : DMRG                   
  Ulf Ekstrom                                   : XCFun DFT Library      
  Mihaly Kallay                                 : mrcc  (arbitrary order and MRCC methods)
  Frank Weinhold                                : gennbo (NPA and NBO analysis)           
  Simon Mueller                                 : openCOSMO-RS                            
  Christopher J. Cramer and Donald G. Truhlar   : smd solvation model                     
  S Lehtola, MJT Oliveira, MAL Marques          : LibXC Library                           
  Liviu Ungur et al                             : ANISO software                          


 Your calculation uses the libint2 library for the computation of 2-el integrals
 For citations please refer to: http://libint.valeyev.net

 Your ORCA version has been built with support for libXC version: 6.2.2
 For citations please refer to: https://libxc.gitlab.io

 This ORCA versions uses:
   CBLAS   interface :  Fast vector & matrix operations
   LAPACKE interface :  Fast linear algebra routines
   SCALAPACK package :  Parallel linear algebra routines
   Shared memory     :  Shared parallel matrices
   BLAS/LAPACK       :  OpenBLAS 0.3.27  USE64BITINT DYNAMIC_ARCH NO_AFFINITY Cooperlake SINGLE_THREADED
        Core in use  :  Cooperlake
   Copyright (c) 2011-2014, The OpenBLAS Project


NOTE: MaxCore=3600 MB was set to SCF,MP2,MDCI,CIPSI,MRCI and CIS
      => If you want to overwrite this, your respective input block should be placed after the MaxCore statement
Warning: RI is on but no J-basis has been assigned. Assigning Def2/J (nothing to worry about!)
================================================================================

----- Orbital basis set information -----
Your calculation utilizes the basis: def2-TZVP
   F. Weigend and R. Ahlrichs, Phys. Chem. Chem. Phys. 7, 3297 (2005).

----- AuxJ basis set information -----
Your calculation utilizes the auxiliary basis: def2/J
   F. Weigend, Phys. Chem. Chem. Phys. 8, 1057 (2006).

================================================================================
                                        WARNINGS
                       Please study these warnings very carefully!
================================================================================


WARNING: your system is open-shell and RHF/RKS was chosen
  ===> : WILL SWITCH to UHF/UKS


WARNING: Geometry Optimization
  ===> : Switching off AutoStart
         For restart on a previous wavefunction, please use MOREAD

================================================================================
                                       INPUT FILE
================================================================================
NAME = KEYPIT-S6.inp
|  1> ! PBE0 def2-TZVP  Opt Freq DEFGRID3
|  2> 
|  3> %maxcore 3600
|  4> 
|  5> %pal
|  6>     nprocs 16
|  7> end
|  8> 
|  9> *xyz 0 4
| 10> Mn 2.3535 1.3083 2.1091
| 11> O 4.4421 1.2797 1.4944
| 12> O 0.2547 1.4241 2.6916
| 13> O 1.7836 0.7589 -0.0592
| 14> O 2.2036 3.2801 1.0705
| 15> O 1.8442 5.363 -1.0243
| 16> O 0.9817 3.9689 -3.4684
| 17> O 0.9512 1.095 -2.9225
| 18> N 2.426 -0.8187 2.5874
| 19> N 2.187 -2.9777 2.3908
| 20> N 2.963 2.1747 4.0154
| 21> N 2.9592 2.9374 6.0462
| 22> C 1.6535 1.8252 -0.7164
| 23> C 1.892 3.1191 -0.1516
| 24> C 1.7053 4.1289 -1.1652
| 25> C 1.2793 3.442 -2.4014
| 26> C 1.2627 1.9855 -2.1137
| 27> C 2.0343 -1.7874 1.7963
| 28> C 2.6782 -2.7486 3.6105
| 29> C 2.8265 -1.4259 3.7348
| 30> C 2.2254 2.5826 4.9935
| 31> C 4.1982 2.8186 5.7443
| 32> C 4.2283 2.3036 4.5069
| 33> H 4.8665 1.9776 1.3381
| 34> H 4.719 0.7435 0.9118
| 35> H -0.1912 0.7158 2.7117
| 36> H -0.1483 1.9502 2.3446
| 37> H 1.9452 -3.7068 1.9657
| 38> H 2.6323 3.2441 6.7496
| 39> H 1.6409 -1.7554 0.7934
| 40> H 2.8571 -3.3218 4.1919
| 41> H 3.146 -0.8839 4.4169
| 42> H 1.228 2.3494 4.9853
| 43> H 5.0355 3.1912 6.3944
| 44> H 4.8389 2.4739 3.7774
| 45> *
| 46> 
| 47>                          ****END OF INPUT****
================================================================================

                       *****************************
                       * Geometry Optimization Run *
                       *****************************

Geometry optimization settings:
Update method            Update   .... BFGS
Choice of coordinates    CoordSys .... (2022) Redundant Internals
Initial Hessian          InHess   .... Almloef's Model
Max. no of cycles        MaxIter  .... 105

Convergence Tolerances:
Energy Change            TolE     ....  5.0000e-06 Eh
Max. Gradient            TolMAXG  ....  3.0000e-04 Eh/bohr
RMS Gradient             TolRMSG  ....  1.0000e-04 Eh/bohr
Max. Displacement        TolMAXD  ....  4.0000e-03 bohr
RMS Displacement         TolRMSD  ....  2.0000e-03 bohr
Strict Convergence                .... False

------------------------------------------------------------------------------
                        ORCA OPTIMIZATION COORDINATE SETUP
------------------------------------------------------------------------------

The optimization will be done in redundant internal coordinates (2022)
Making redundant internal coordinates   ...  (2022 redundants) done
Evaluating the initial hessian          ...  (Almloef) done
Evaluating the coordinates              ...  done
Calculating the B-matrix                .... done
Calculating the G-matrix                .... done
Diagonalizing the G-matrix              .... done
Small eigenvalue found = 1.084e-02
Small eigenvalue found = 1.868e-02
Small eigenvalue found = 2.235e-02
The first mode is                       ....  114
The number of degrees of freedom        ....   99

    -----------------------------------------------------------------
                    Redundant Internal Coordinates


    -----------------------------------------------------------------
         Definition                    Initial Value    Approx d2E/dq
    -----------------------------------------------------------------
      1. B(O   1,Mn  0)                  2.1774         0.313912   
      2. B(O   2,Mn  0)                  2.1812         0.309510   
      3. B(O   3,Mn  0)                  2.3083         0.194064   
      4. B(O   4,Mn  0)                  2.2336         0.255284   
      5. B(N   8,Mn  0)                  2.1813         0.309386   
      6. B(N  10,Mn  0)                  2.1809         0.309917   
      7. B(C  12,O   3)                  1.2593         0.904484   
      8. B(C  13,C  12)                  1.4318         0.535853   
      9. B(C  13,O   4)                  1.2714         0.865048   
     10. B(C  14,C  13)                  1.4429         0.514461   
     11. B(C  14,O   5)                  1.2499         0.936398   
     12. B(C  15,C  14)                  1.4770         0.453892   
     13. B(C  15,O   6)                  1.2267         1.019729   
     14. B(C  16,C  12)                  1.4597         0.483568   
     15. B(C  16,O   7)                  1.2427         0.961529   
     16. B(C  16,C  15)                  1.4847         0.441158   
     17. B(C  17,N   9)                  1.3392         0.674312   
     18. B(C  17,N   8)                  1.3106         0.749149   
     19. B(C  18,N   9)                  1.3347         0.685643   
     20. B(C  19,C  18)                  1.3368         0.759712   
     21. B(C  19,N   8)                  1.3585         0.628167   
     22. B(C  20,N  11)                  1.3314         0.694112   
     23. B(C  20,N  10)                  1.2912         0.804554   
     24. B(C  21,N  11)                  1.2808         0.835874   
     25. B(C  22,C  21)                  1.3406         0.749039   
     26. B(C  22,N  10)                  1.3635         0.616782   
     27. B(H  23,O   1)                  0.8316         0.833243   
     28. B(H  24,O   1)                  0.8388         0.811546   
     29. B(H  25,O   2)                  0.8372         0.816340   
     30. B(H  26,O   2)                  0.7481         1.132655   
     31. B(H  27,N   9)                  0.8779         0.702913   
     32. B(H  28,N  11)                  0.8341         0.825760   
     33. B(H  29,C  17)                  1.0778         0.376643   
     34. B(H  30,C  18)                  0.8358         0.916129   
     35. B(H  31,C  19)                  0.9280         0.653058   
     36. B(H  32,C  20)                  1.0243         0.458345   
     37. B(H  33,C  21)                  1.1236         0.318257   
     38. B(H  34,C  22)                  0.9664         0.566965   
     39. A(O   4,Mn  0,N  10)           94.2722         0.407089   
     40. A(O   3,Mn  0,N  10)          169.9507         0.387949   
     41. A(O   2,Mn  0,N  10)           90.8247         0.421263   
     42. A(O   1,Mn  0,O   4)           86.8299         0.408012   
     43. A(O   4,Mn  0,N   8)          164.7915         0.406965   
     44. A(O   2,Mn  0,O   3)           91.4858         0.387860   
     45. A(O   3,Mn  0,O   4)           75.9221         0.375111   
     46. A(O   2,Mn  0,O   4)           90.7296         0.406994   
     47. A(O   3,Mn  0,N   8)           88.9740         0.387832   
     48. A(O   1,Mn  0,N   8)           90.9863         0.422197   
     49. A(O   1,Mn  0,O   3)           88.1954         0.388816   
     50. A(O   2,Mn  0,N   8)           91.4435         0.421134   
     51. A(O   1,Mn  0,N  10)           89.0779         0.422327   
     52. A(N   8,Mn  0,N  10)          100.7444         0.421233   
     53. A(Mn  0,O   1,H  23)          122.1105         0.399415   
     54. A(Mn  0,O   1,H  24)          121.4081         0.397567   
     55. A(H  23,O   1,H  24)          103.7358         0.375525   
     56. A(Mn  0,O   2,H  26)          115.5838         0.420689   
     57. A(H  25,O   2,H  26)          108.6149         0.396552   
     58. A(Mn  0,O   2,H  25)          118.2927         0.396992   
     59. A(Mn  0,O   3,C  12)          108.3126         0.418060   
     60. A(Mn  0,O   4,C  13)          110.5853         0.435613   
     61. A(C  17,N   8,C  19)          105.5192         0.444313   
     62. A(Mn  0,N   8,C  19)          129.1101         0.425733   
     63. A(Mn  0,N   8,C  17)          125.3406         0.439428   
     64. A(C  17,N   9,H  27)          119.4569         0.395744   
     65. A(C  18,N   9,H  27)          133.3455         0.396903   
     66. A(C  17,N   9,C  18)          107.1613         0.442893   
     67. A(Mn  0,N  10,C  22)          127.7335         0.424472   
     68. A(C  20,N  10,C  22)          103.1316         0.448606   
     69. A(Mn  0,N  10,C  20)          128.9037         0.445272   
     70. A(C  21,N  11,H  28)          127.7368         0.422981   
     71. A(C  20,N  11,H  28)          123.2836         0.409223   
     72. A(C  20,N  11,C  21)          108.7893         0.461556   
     73. A(C  13,C  12,C  16)          108.8414         0.404599   
     74. A(O   3,C  12,C  16)          128.3302         0.441376   
     75. A(O   3,C  12,C  13)          122.8277         0.449660   
     76. A(C  12,C  13,C  14)          109.4984         0.409053   
     77. A(O   4,C  13,C  14)          128.1929         0.442762   
     78. A(O   4,C  13,C  12)          122.3044         0.446039   
     79. A(C  13,C  14,C  15)          107.4456         0.397251   
     80. A(O   5,C  14,C  15)          125.8462         0.439097   
     81. A(O   5,C  14,C  13)          126.6873         0.449165   
     82. A(C  14,C  15,C  16)          107.2935         0.386711   
     83. A(O   6,C  15,C  14)          126.7444         0.445918   
     84. A(O   6,C  15,C  16)          125.9595         0.443627   
     85. A(C  12,C  16,C  15)          106.8708         0.391010   
     86. A(O   7,C  16,C  15)          125.4272         0.438941   
     87. A(O   7,C  16,C  12)          127.6936         0.446287   
     88. A(N   8,C  17,H  29)          130.4537         0.364982   
     89. A(N   9,C  17,H  29)          118.7558         0.358485   
     90. A(N   8,C  17,N   9)          110.7874         0.450060   
     91. A(C  19,C  18,H  30)          126.1675         0.430364   
     92. A(N   9,C  18,H  30)          126.6359         0.419785   
     93. A(N   9,C  18,C  19)          107.1960         0.455591   
     94. A(C  18,C  19,H  31)          133.1941         0.405188   
     95. A(N   8,C  19,H  31)          117.4687         0.389377   
     96. A(N   8,C  19,C  18)          109.3298         0.448398   
     97. A(N  11,C  20,H  32)          127.1335         0.372582   
     98. A(N  10,C  20,H  32)          118.5718         0.382219   
     99. A(N  10,C  20,N  11)          111.6110         0.458350   
    100. A(N  11,C  21,C  22)          105.9572         0.471178   
    101. A(C  22,C  21,H  33)          130.1415         0.356853   
    102. A(N  11,C  21,H  33)          123.6237         0.361327   
    103. A(N  10,C  22,C  21)          110.3766         0.445769   
    104. A(C  21,C  22,H  34)          130.0311         0.394252   
    105. A(N  10,C  22,H  34)          109.3211         0.378716   
    106. D(H  24,O   1,Mn  0,O   4)   -110.0616         0.002022   
    107. D(H  24,O   1,Mn  0,N  10)    155.6079         0.002022   
    108. D(H  24,O   1,Mn  0,O   3)    -34.0656         0.002022   
    109. D(H  23,O   1,Mn  0,O   3)    101.3027         0.002022   
    110. D(H  23,O   1,Mn  0,N  10)    -69.0239         0.002022   
    111. D(H  24,O   1,Mn  0,N   8)     54.8767         0.002022   
    112. D(H  23,O   1,Mn  0,N   8)   -169.7551         0.002022   
    113. D(H  23,O   1,Mn  0,O   4)     25.3066         0.002022   
    114. D(H  26,O   2,Mn  0,O   4)     13.1646         0.002008   
    115. D(H  26,O   2,Mn  0,O   3)    -62.7710         0.002008   
    116. D(H  25,O   2,Mn  0,N  10)   -121.2801         0.002008   
    117. D(H  25,O   2,Mn  0,O   4)    144.4364         0.002008   
    118. D(H  25,O   2,Mn  0,O   3)     68.5008         0.002008   
    119. D(H  26,O   2,Mn  0,N   8)   -151.7818         0.002008   
    120. D(H  26,O   2,O   1,H  23)     38.0287         0.001500   
    121. D(H  25,O   2,Mn  0,N   8)    -20.5100         0.002008   
    122. D(H  25,O   2,O   1,H  23)    169.1638         0.001500   
    123. D(H  25,O   2,O   1,H  24)     34.7163         0.001500   
    124. D(H  26,O   2,O   1,H  24)    -96.4188         0.001500   
    125. D(H  26,O   2,Mn  0,N  10)    107.4481         0.002008   
    126. D(C  12,O   3,Mn  0,N  10)    -14.0244         0.001691   
    127. D(C  12,O   3,Mn  0,N   8)   -179.3756         0.001691   
    128. D(C  12,O   3,Mn  0,O   4)     -1.1730         0.001691   
    129. D(C  12,O   3,Mn  0,O   2)     89.2067         0.001691   
    130. D(C  12,O   3,Mn  0,O   1)    -88.3564         0.001691   
    131. D(C  13,O   4,Mn  0,N  10)    177.7032         0.001826   
    132. D(C  13,O   4,Mn  0,N   8)      6.7995         0.001826   
    133. D(C  13,O   4,Mn  0,O   3)     -0.0663         0.001826   
    134. D(C  13,O   4,Mn  0,O   1)     88.8664         0.001826   
    135. D(C  13,O   4,Mn  0,O   2)    -91.4152         0.001826   
    136. D(C  17,N   8,Mn  0,O   1)    -96.8029         0.002008   
    137. D(C  19,N   8,Mn  0,O   2)    -94.8774         0.002008   
    138. D(C  19,N   8,Mn  0,O   1)     85.4848         0.002008   
    139. D(C  17,N   8,Mn  0,N  10)    173.9486         0.002008   
    140. D(C  17,N   8,Mn  0,O   4)    -15.2855         0.002008   
    141. D(C  17,N   8,Mn  0,O   3)     -8.6258         0.002008   
    142. D(C  17,N   8,Mn  0,O   2)     82.8349         0.002008   
    143. D(C  22,N  10,Mn  0,O   2)    171.8604         0.002009   
    144. D(C  22,N  10,Mn  0,O   1)    -10.5946         0.002009   
    145. D(C  20,N  10,Mn  0,N   8)    -93.2881         0.002009   
    146. D(C  20,N  10,Mn  0,O   4)     89.1313         0.002009   
    147. D(C  20,N  10,Mn  0,O   3)    101.6257         0.002009   
    148. D(C  20,N  10,Mn  0,O   2)     -1.6621         0.002009   
    149. D(C  20,N  10,Mn  0,O   1)    175.8829         0.002009   
    150. D(C  16,C  12,O   3,Mn  0)   -177.9964         0.065079   
    151. D(C  13,C  12,O   3,Mn  0)      2.3189         0.065079   
    152. D(C  14,C  13,C  12,C  16)     -1.7721         0.019611   
    153. D(C  14,C  13,C  12,O   3)    177.9666         0.019611   
    154. D(O   4,C  13,C  12,C  16)    177.5403         0.019611   
    155. D(O   4,C  13,C  12,O   3)     -2.7210         0.019611   
    156. D(C  14,C  13,O   4,Mn  0)   -179.5381         0.058815   
    157. D(C  12,C  13,O   4,Mn  0)      1.2866         0.058815   
    158. D(C  15,C  14,C  13,C  12)      2.3326         0.018042   
    159. D(C  15,C  14,C  13,O   4)   -176.9279         0.018042   
    160. D(O   5,C  14,C  13,C  12)   -179.2599         0.018042   
    161. D(O   5,C  14,C  13,O   4)      1.4796         0.018042   
    162. D(C  16,C  15,C  14,C  13)     -1.9846         0.014039   
    163. D(C  16,C  15,C  14,O   5)    179.5908         0.014039   
    164. D(O   6,C  15,C  14,C  13)    177.4540         0.014039   
    165. D(O   6,C  15,C  14,O   5)     -0.9705         0.014039   
    166. D(C  15,C  16,C  12,O   3)   -179.2290         0.015921   
    167. D(O   7,C  16,C  12,C  13)   -178.4893         0.015921   
    168. D(O   7,C  16,C  12,O   3)      1.7906         0.015921   
    169. D(C  12,C  16,C  15,C  14)      0.9254         0.013278   
    170. D(C  12,C  16,C  15,O   6)   -178.5189         0.013278   
    171. D(O   7,C  16,C  15,C  14)    179.9353         0.013278   
    172. D(O   7,C  16,C  15,O   6)      0.4910         0.013278   
    173. D(C  15,C  16,C  12,C  13)      0.4911         0.015921   
    174. D(H  29,C  17,N   9,H  27)     -1.6708         0.037355   
    175. D(H  29,C  17,N   9,C  18)   -179.7638         0.037355   
    176. D(N   8,C  17,N   9,H  27)    178.8966         0.037355   
    177. D(N   8,C  17,N   9,C  18)      0.8036         0.037355   
    178. D(H  29,C  17,N   8,C  19)    179.8838         0.047117   
    179. D(H  29,C  17,N   8,Mn  0)      1.7259         0.047117   
    180. D(N   9,C  17,N   8,C  19)     -0.7701         0.047117   
    181. D(N   9,C  17,N   8,Mn  0)   -178.9279         0.047117   
    182. D(H  30,C  18,N   9,H  27)      1.5058         0.038744   
    183. D(H  30,C  18,N   9,C  17)    179.2223         0.038744   
    184. D(C  19,C  18,N   9,H  27)   -178.2045         0.038744   
    185. D(C  19,C  18,N   9,C  17)     -0.4880         0.038744   
    186. D(H  31,C  19,C  18,H  30)      1.3520         0.041264   
    187. D(H  31,C  19,C  18,N   9)   -178.9360         0.041264   
    188. D(N   8,C  19,C  18,H  30)   -179.6862         0.041264   
    189. D(N   8,C  19,C  18,N   9)      0.0258         0.041264   
    190. D(H  31,C  19,N   8,C  17)    179.5999         0.032019   
    191. D(H  31,C  19,N   8,Mn  0)     -2.3367         0.032019   
    192. D(C  18,C  19,N   8,C  17)      0.4530         0.032019   
    193. D(C  18,C  19,N   8,Mn  0)    178.5163         0.032019   
    194. D(H  32,C  20,N  11,H  28)    -20.9395         0.039802   
    195. D(H  32,C  20,N  11,C  21)    163.7269         0.039802   
    196. D(N  10,C  20,N  11,H  28)    178.1113         0.039802   
    197. D(N  10,C  20,N  11,C  21)      2.7778         0.039802   
    198. D(H  32,C  20,N  10,C  22)   -163.3332         0.055264   
    199. D(H  32,C  20,N  10,Mn  0)     11.4102         0.055264   
    200. D(N  11,C  20,N  10,C  22)     -0.5692         0.055264   
    201. D(N  11,C  20,N  10,Mn  0)    174.1743         0.055264   
    202. D(H  33,C  21,N  11,H  28)     -4.2517         0.060228   
    203. D(H  33,C  21,N  11,C  20)    170.8149         0.060228   
    204. D(C  22,C  21,N  11,H  28)   -178.7433         0.060228   
    205. D(C  22,C  21,N  11,C  20)     -3.6767         0.060228   
    206. D(H  34,C  22,C  21,H  33)    -29.9505         0.040002   
    207. D(H  34,C  22,C  21,N  11)    144.0476         0.040002   
    208. D(N  10,C  22,C  21,H  33)   -170.5712         0.040002   
    209. D(N  10,C  22,C  21,N  11)      3.4269         0.040002   
    210. D(H  34,C  22,N  10,C  20)   -150.7595         0.030780   
    211. D(H  34,C  22,N  10,Mn  0)     34.4127         0.030780   
    212. D(C  21,C  22,N  10,C  20)     -1.7429         0.030780   
    213. D(C  21,C  22,N  10,Mn  0)   -176.5707         0.030780   
    -----------------------------------------------------------------

Number of atoms                         .... 35
Number of degrees of freedom            .... 213


         *************************************************************
         *                GEOMETRY OPTIMIZATION CYCLE   1            *
         *************************************************************
---------------------------------
CARTESIAN COORDINATES (ANGSTROEM)
---------------------------------
  Mn     2.353500    1.308300    2.109100
  O      4.442100    1.279700    1.494400
  O      0.254700    1.424100    2.691600
  O      1.783600    0.758900   -0.059200
  O      2.203600    3.280100    1.070500
  O      1.844200    5.363000   -1.024300
  O      0.981700    3.968900   -3.468400
  O      0.951200    1.095000   -2.922500
  N      2.426000   -0.818700    2.587400
  N      2.187000   -2.977700    2.390800
  N      2.963000    2.174700    4.015400
  N      2.959200    2.937400    6.046200
  C      1.653500    1.825200   -0.716400
  C      1.892000    3.119100   -0.151600
  C      1.705300    4.128900   -1.165200
  C      1.279300    3.442000   -2.401400
  C      1.262700    1.985500   -2.113700
  C      2.034300   -1.787400    1.796300
  C      2.678200   -2.748600    3.610500
  C      2.826500   -1.425900    3.734800
  C      2.225400    2.582600    4.993500
  C      4.198200    2.818600    5.744300
  C      4.228300    2.303600    4.506900
  H      4.866500    1.977600    1.338100
  H      4.719000    0.743500    0.911800
  H     -0.191200    0.715800    2.711700
  H     -0.148300    1.950200    2.344600
  H      1.945200   -3.706800    1.965700
  H      2.632300    3.244100    6.749600
  H      1.640900   -1.755400    0.793400
  H      2.857100   -3.321800    4.191900
  H      3.146000   -0.883900    4.416900
  H      1.228000    2.349400    4.985300
  H      5.035500    3.191200    6.394400
  H      4.838900    2.473900    3.777400

----------------------------
CARTESIAN COORDINATES (A.U.)
----------------------------
  NO LB      ZA    FRAG     MASS         X           Y           Z
   0 Mn   25.0000    0    54.940    4.447470    2.472329    3.985621
   1 O     8.0000    0    15.999    8.394352    2.418283    2.824007
   2 O     8.0000    0    15.999    0.481313    2.691159    5.086387
   3 O     8.0000    0    15.999    3.370516    1.434113   -0.111872
   4 O     8.0000    0    15.999    4.164201    6.198491    2.022952
   5 O     8.0000    0    15.999    3.485033   10.134601   -1.935646
   6 O     8.0000    0    15.999    1.855144    7.500134   -6.554326
   7 O     8.0000    0    15.999    1.797507    2.069250   -5.522725
   8 N     7.0000    0    14.007    4.584476   -1.547119    4.889477
   9 N     7.0000    0    14.007    4.132831   -5.627038    4.517957
  10 N     7.0000    0    14.007    5.599259    4.109587    7.588006
  11 N     7.0000    0    14.007    5.592078    5.550882   11.425662
  12 C     6.0000    0    12.011    3.124662    3.449128   -1.353800
  13 C     6.0000    0    12.011    3.575362    5.894245   -0.286482
  14 C     6.0000    0    12.011    3.222550    7.802490   -2.201909
  15 C     6.0000    0    12.011    2.417527    6.504437   -4.537988
  16 C     6.0000    0    12.011    2.386157    3.752051   -3.994314
  17 C     6.0000    0    12.011    3.844270   -3.377696    3.394515
  18 C     6.0000    0    12.011    5.061065   -5.194101    6.822856
  19 C     6.0000    0    12.011    5.341311   -2.694560    7.057749
  20 C     6.0000    0    12.011    4.205397    4.880407    9.436347
  21 C     6.0000    0    12.011    7.933448    5.326382   10.855154
  22 C     6.0000    0    12.011    7.990329    4.353173    8.516807
  23 H     1.0000    0     1.008    9.196352    3.737122    2.528643
  24 H     1.0000    0     1.008    8.917618    1.405011    1.723052
  25 H     1.0000    0     1.008   -0.361316    1.352666    5.124370
  26 H     1.0000    0     1.008   -0.280246    3.685344    4.430652
  27 H     1.0000    0     1.008    3.675895   -7.004837    3.714635
  28 H     1.0000    0     1.008    4.974326    6.130461   12.754896
  29 H     1.0000    0     1.008    3.100852   -3.317225    1.499309
  30 H     1.0000    0     1.008    5.399137   -6.277292    7.921543
  31 H     1.0000    0     1.008    5.945078   -1.670329    8.346731
  32 H     1.0000    0     1.008    2.320584    4.439723    9.420852
  33 H     1.0000    0     1.008    9.515716    6.030494   12.083665
  34 H     1.0000    0     1.008    9.144196    4.674993    7.138251

--------------------------------
INTERNAL COORDINATES (ANGSTROEM)
--------------------------------
 Mn     0   0   0     0.000000000000     0.00000000     0.00000000
 O      1   0   0     2.177366301292     0.00000000     0.00000000
 O      1   2   0     2.181210060952   177.54332802     0.00000000
 O      1   2   3     2.308278852305    88.19538961    82.57956581
 O      1   2   4     2.233641692394    86.82988290   284.00398993
 O      5   1   2     2.975874293380   162.42002387    86.01291442
 O      6   5   1     2.942965489094   106.76448134     6.54845495
 O      7   6   5     2.925446678714   108.26678939   357.12256036
 N      1   2   5     2.181319816075    90.98630040   164.93827506
 N      9   1   2     2.181067069120   160.36035531   261.36577909
 N      1   2   5     2.180852791914    89.07787276   265.66949923
 N     11   1   2     2.169302738209   163.23312364   187.46461401
 C      4   1   2     1.259298828714   108.31262767   271.64363680
 C      5   1   2     1.271433824467   110.58528616    88.86639014
 C      6   5   1     1.249859524107    53.24989358     4.11438824
 C      7   6   5     1.226653321032    53.84133350   357.08877525
 C      8   7   6     1.242650369171    54.18671066     0.21564356
 C      9   1   2     1.310590626397   125.34063079   263.19705446
 C     10   9   1     1.334703090579    72.98558869   183.40568177
 C     19  10   9     1.336779215129   107.19599792     0.00000000
 C     11   1   2     1.291168377866   128.90368057   175.88292352
 C     12  11   1     1.280772442708    75.22795524   166.82813170
 C     22  12  11     1.340630362926   105.95716541   357.91255462
 H      2   1  11     0.831630603093   122.11052841   290.97614200
 H      2   1  11     0.838812738339   121.40806915   155.60791790
 H      3   1   2     0.837209477968   118.29271131   151.01036838
 H      3   1   2     0.748063640341   115.58379962    19.73860744
 H     10   9   1     0.877931694382   153.62409438     0.43976104
 H     12  11   1     0.834086362435   156.84477920   340.09078687
 H     18   9   1     1.077773617231   130.45372504     1.72588364
 H     19  10   9     0.835816612661   126.63585577   179.69443966
 H     20  19  10     0.927957251171   133.19413405   181.06400354
 H     21  11   1     1.024332094587   118.57181835    11.41018397
 H     22  12  11     1.123624519134   123.62365458   172.40415147
 H     23  22  12     0.966439185878   130.03106401   144.04763731

---------------------------
INTERNAL COORDINATES (A.U.)
---------------------------
 Mn     0   0   0     0.000000000000     0.00000000     0.00000000
 O      1   0   0     4.114626002670     0.00000000     0.00000000
 O      1   2   0     4.121889655754   177.54332802     0.00000000
 O      1   2   3     4.362014871579    88.19538961    82.57956581
 O      1   2   4     4.220971079933    86.82988290   284.00398993
 O      5   1   2     5.623587423465   162.42002387    86.01291442
 O      6   5   1     5.561398795970   106.76448134     6.54845495
 O      7   6   5     5.528293042159   108.26678939   357.12256036
 N      1   2   5     4.122097062877    90.98630040   164.93827506
 N      9   1   2     4.121619440351   160.36035531   261.36577909
 N      1   2   5     4.121214515115    89.07787276   265.66949923
 N     11   1   2     4.099388076780   163.23312364   187.46461401
 C      4   1   2     2.379729907037   108.31262767   271.64363680
 C      5   1   2     2.402661725648   110.58528616    88.86639014
 C      6   5   1     2.361892206435    53.24989358     4.11438824
 C      7   6   5     2.318038838016    53.84133350   357.08877525
 C      8   7   6     2.348268877949    54.18671066     0.21564356
 C      9   1   2     2.476657357575   125.34063079   263.19705446
 C     10   9   1     2.522223311292    72.98558869   183.40568177
 C     19  10   9     2.526146618111   107.19599792     0.00000000
 C     11   1   2     2.439954626945   128.90368057   175.88292352
 C     12  11   1     2.420309156591    75.22795524   166.82813170
 C     22  12  11     2.533424232750   105.95716541   357.91255462
 H      2   1  11     1.571554084433   122.11052841   290.97614200
 H      2   1  11     1.585126353106   121.40806915   155.60791790
 H      3   1   2     1.582096630083   118.29271131   151.01036838
 H      3   1   2     1.413635410988   115.58379962    19.73860744
 H     10   9   1     1.659050466671   153.62409438     0.43976104
 H     12  11   1     1.576194797041   156.84477920   340.09078687
 H     18   9   1     2.036696970933   130.45372504     1.72588364
 H     19  10   9     1.579464496111   126.63585577   179.69443966
 H     20  19  10     1.753585068699   133.19413405   181.06400354
 H     21  11   1     1.935707128954   118.57181835    11.41018397
 H     22  12  11     2.123342618523   123.62365458   172.40415147
 H     23  22  12     1.826305386399   130.03106401   144.04763731

---------------------
BASIS SET INFORMATION
---------------------
There are 5 groups of distinct atoms

 Group   1 Type Mn  : 17s11p7d1f contracted to 6s4p4d1f pattern {842111/6311/4111/1}
 Group   2 Type O   : 11s6p2d1f contracted to 5s3p2d1f pattern {62111/411/11/1}
 Group   3 Type N   : 11s6p2d1f contracted to 5s3p2d1f pattern {62111/411/11/1}
 Group   4 Type C   : 11s6p2d1f contracted to 5s3p2d1f pattern {62111/411/11/1}
 Group   5 Type H   : 5s1p contracted to 3s1p pattern {311/1}

Atom   0Mn   basis set group =>   1
Atom   1O    basis set group =>   2
Atom   2O    basis set group =>   2
Atom   3O    basis set group =>   2
Atom   4O    basis set group =>   2
Atom   5O    basis set group =>   2
Atom   6O    basis set group =>   2
Atom   7O    basis set group =>   2
Atom   8N    basis set group =>   3
Atom   9N    basis set group =>   3
Atom  10N    basis set group =>   3
Atom  11N    basis set group =>   3
Atom  12C    basis set group =>   4
Atom  13C    basis set group =>   4
Atom  14C    basis set group =>   4
Atom  15C    basis set group =>   4
Atom  16C    basis set group =>   4
Atom  17C    basis set group =>   4
Atom  18C    basis set group =>   4
Atom  19C    basis set group =>   4
Atom  20C    basis set group =>   4
Atom  21C    basis set group =>   4
Atom  22C    basis set group =>   4
Atom  23H    basis set group =>   5
Atom  24H    basis set group =>   5
Atom  25H    basis set group =>   5
Atom  26H    basis set group =>   5
Atom  27H    basis set group =>   5
Atom  28H    basis set group =>   5
Atom  29H    basis set group =>   5
Atom  30H    basis set group =>   5
Atom  31H    basis set group =>   5
Atom  32H    basis set group =>   5
Atom  33H    basis set group =>   5
Atom  34H    basis set group =>   5
---------------------------------
AUXILIARY/J BASIS SET INFORMATION
---------------------------------
There are 5 groups of distinct atoms

 Group   1 Type Mn  : 19s5p5d3f3g contracted to 8s5p5d2f3g pattern {121111111/11111/11111/21/111}
 Group   2 Type O   : 12s5p4d2f1g contracted to 6s4p3d1f1g pattern {711111/2111/211/2/1}
 Group   3 Type N   : 12s5p4d2f1g contracted to 6s4p3d1f1g pattern {711111/2111/211/2/1}
 Group   4 Type C   : 12s5p4d2f1g contracted to 6s4p3d1f1g pattern {711111/2111/211/2/1}
 Group   5 Type H   : 5s2p1d contracted to 3s1p1d pattern {311/2/1}

Atom   0Mn   basis set group =>   1
Atom   1O    basis set group =>   2
Atom   2O    basis set group =>   2
Atom   3O    basis set group =>   2
Atom   4O    basis set group =>   2
Atom   5O    basis set group =>   2
Atom   6O    basis set group =>   2
Atom   7O    basis set group =>   2
Atom   8N    basis set group =>   3
Atom   9N    basis set group =>   3
Atom  10N    basis set group =>   3
Atom  11N    basis set group =>   3
Atom  12C    basis set group =>   4
Atom  13C    basis set group =>   4
Atom  14C    basis set group =>   4
Atom  15C    basis set group =>   4
Atom  16C    basis set group =>   4
Atom  17C    basis set group =>   4
Atom  18C    basis set group =>   4
Atom  19C    basis set group =>   4
Atom  20C    basis set group =>   4
Atom  21C    basis set group =>   4
Atom  22C    basis set group =>   4
Atom  23H    basis set group =>   5
Atom  24H    basis set group =>   5
Atom  25H    basis set group =>   5
Atom  26H    basis set group =>   5
Atom  27H    basis set group =>   5
Atom  28H    basis set group =>   5
Atom  29H    basis set group =>   5
Atom  30H    basis set group =>   5
Atom  31H    basis set group =>   5
Atom  32H    basis set group =>   5
Atom  33H    basis set group =>   5
Atom  34H    basis set group =>   5


           ************************************************************
           *        Program running with 16 parallel MPI-processes    *
           *              working on a common directory               *
           ************************************************************
------------------------------------------------------------------------------
                             ORCA STARTUP CALCULATIONS
                           -- RI-GTO INTEGRALS CHOSEN --
------------------------------------------------------------------------------
------------------------------------------------------------------------------
                   ___                                                        
                  /   \      - P O W E R E D   B Y -                         
                 /     \                                                     
                 |  |  |   _    _      __       _____    __    __             
                 |  |  |  | |  | |    /  \     |  _  \  |  |  /  |          
                  \  \/   | |  | |   /    \    | | | |  |  | /  /          
                 / \  \   | |__| |  /  /\  \   | |_| |  |  |/  /          
                |  |  |   |  __  | /  /__\  \  |    /   |      \           
                |  |  |   | |  | | |   __   |  |    \   |  |\   \          
                \     /   | |  | | |  |  |  |  | |\  \  |  | \   \       
                 \___/    |_|  |_| |__|  |__|  |_| \__\ |__|  \__/        
                                                                              
                      - O R C A' S   B I G   F R I E N D -                    
                                      &                                       
                       - I N T E G R A L  F E E D E R -                       
                                                                              
 v1 FN, 2020, v2 2021, v3 2022-2024                                           
------------------------------------------------------------------------------


----------------------
SHARK INTEGRAL PACKAGE
----------------------

Number of atoms                             ...     35
Number of basis functions                   ...    799
Number of shells                            ...    305
Maximum angular momentum                    ...      3
Integral batch strategy                     ... SHARK/LIBINT Hybrid
RI-J (if used) integral strategy            ... SPLIT-RIJ (Revised 2003 algorithm where possible)
Printlevel                                  ...      1
Contraction scheme used                     ... SEGMENTED contraction
Prescreening option                         ... SCHWARTZ
   Thresh                                   ... 2.500e-11
   Tcut                                     ... 2.500e-12
   Tpresel                                  ... 2.500e-12 
Coulomb Range Separation                    ... NOT USED
Exchange Range Separation                   ... NOT USED
Multipole approximations                    ... NOT USED
Finite Nucleus Model                        ... NOT USED
CABS basis                                  ... NOT available
Auxiliary Coulomb fitting basis             ... AVAILABLE
   # of basis functions in Aux-J            ...   1299
   # of shells in Aux-J                     ...    413
   Maximum angular momentum in Aux-J        ...      4
Auxiliary J/K fitting basis                 ... NOT available
Auxiliary Correlation fitting basis         ... NOT available
Auxiliary 'external' fitting basis          ... NOT available

Checking pre-screening integrals            ... done (  0.0 sec) Dimension = 305
Check shell pair data                       ... done (  0.0 sec)
Shell pair information
Shell pair cut-off parameter TPreSel        ...   2.5e-12
Total number of shell pairs                 ...     46665
Shell pairs after pre-screening             ...     30704
Total number of primitive shell pairs       ...    151005
Primitive shell pairs kept                  ...     63673
          la=0 lb=0:   7384 shell pairs
          la=1 lb=0:   8713 shell pairs
          la=1 lb=1:   2611 shell pairs
          la=2 lb=0:   4554 shell pairs
          la=2 lb=1:   2758 shell pairs
          la=2 lb=2:    722 shell pairs
          la=3 lb=0:   1965 shell pairs
          la=3 lb=1:   1235 shell pairs
          la=3 lb=2:    625 shell pairs
          la=3 lb=3:    137 shell pairs

Calculating one electron integrals          ... done (  0.0 sec)
done (  0.1 sec)
Calculating Nuclear repulsion               ... done (  0.0 sec) ENN=   2424.914704242384 Eh

Diagonalization of the overlap matrix:
Smallest eigenvalue                        ... 5.283e-05
Time for diagonalization                   ...    0.088 sec
Threshold for overlap eigenvalues          ... 1.000e-07
Number of eigenvalues below threshold      ... 0
Time for construction of square roots      ...    0.055 sec
Total time needed                          ...    0.161 sec

-------------------
DFT GRID GENERATION
-------------------

General Integration Accuracy     IntAcc      ... 4.959
Radial Grid Type                 RadialGrid  ... OptM3 with GC (2021)
Angular Grid (max. ang.)         AngularGrid ... 6 (Lebedev-590)
Angular grid pruning method      GridPruning ... 4 (adaptive)
Weight generation scheme         WeightScheme... mBecke (2022)
Basis function cutoff            BFCut       ... 1.0000e-11
Integration weight cutoff        WCut        ... 1.0000e-14
Partially contracted basis set               ... off
Rotationally invariant grid construction     ... off
Angular grids for H and He will be reduced by one unit
Core-polarized basis detected: some atoms will have their core
                               angular grid increased.

Total number of grid points                  ...   443678
Total number of batches                      ...     6952
Average number of points per batch           ...       63
Average number of grid points per atom       ...    12677

--------------------
COSX GRID GENERATION
--------------------

GRIDX 1
-------
General Integration Accuracy     IntAcc      ... 4.020
Radial Grid Type                 RadialGrid  ... OptM3 with GC (2021)
Angular Grid (max. ang.)         AngularGrid ... 2 (Lebedev-110)
Angular grid pruning method      GridPruning ... 4 (adaptive)
Weight generation scheme         WeightScheme... mBecke (2022)
Basis function cutoff            BFCut       ... 1.0000e-11
Integration weight cutoff        WCut        ... 1.0000e-14
Partially contracted basis set               ... on
Rotationally invariant grid construction     ... off
Angular grids for H and He will be reduced by one unit
Core-polarized basis detected: some atoms will have their core
                               angular grid increased.

Total number of grid points                  ...    53310
Total number of batches                      ...      433
Average number of points per batch           ...      123
Average number of grid points per atom       ...     1523
UseSFitting                                  ... on

GRIDX 2
-------
General Integration Accuracy     IntAcc      ... 4.338
Radial Grid Type                 RadialGrid  ... OptM3 with GC (2021)
Angular Grid (max. ang.)         AngularGrid ... 3 (Lebedev-194)
Angular grid pruning method      GridPruning ... 4 (adaptive)
Weight generation scheme         WeightScheme... mBecke (2022)
Basis function cutoff            BFCut       ... 1.0000e-11
Integration weight cutoff        WCut        ... 1.0000e-14
Partially contracted basis set               ... on
Rotationally invariant grid construction     ... off
Angular grids for H and He will be reduced by one unit
Core-polarized basis detected: some atoms will have their core
                               angular grid increased.

Total number of grid points                  ...   110770
Total number of batches                      ...      883
Average number of points per batch           ...      125
Average number of grid points per atom       ...     3165
UseSFitting                                  ... on

GRIDX 3
-------
General Integration Accuracy     IntAcc      ... 4.871
Radial Grid Type                 RadialGrid  ... OptM3 with GC (2021)
Angular Grid (max. ang.)         AngularGrid ... 4 (Lebedev-302)
Angular grid pruning method      GridPruning ... 4 (adaptive)
Weight generation scheme         WeightScheme... mBecke (2022)
Basis function cutoff            BFCut       ... 1.0000e-11
Integration weight cutoff        WCut        ... 1.0000e-14
Partially contracted basis set               ... on
Rotationally invariant grid construction     ... off
Angular grids for H and He will be reduced by one unit
Core-polarized basis detected: some atoms will have their core
                               angular grid increased.

Total number of grid points                  ...   204553
Total number of batches                      ...     1616
Average number of points per batch           ...      126
Average number of grid points per atom       ...     5844
UseSFitting                                  ... on
Initializing property integral containers    ... done (  0.0 sec)

SHARK setup successfully completed in   6.4 seconds

Maximum memory used throughout the entire STARTUP-calculation: 128.2 MB


           ************************************************************
           *        Program running with 16 parallel MPI-processes    *
           *              working on a common directory               *
           ************************************************************
-------------------------------------------------------------------------------
                                 ORCA GUESS
                   Start orbitals & Density for SCF / CASSCF
-------------------------------------------------------------------------------

------------
SCF SETTINGS
------------
Hamiltonian:
 Density Functional     Method          .... DFT(GTOs)
 Exchange Functional    Exchange        .... PBE
   PBE kappa parameter   XKappa         ....  0.804000
   PBE mue parameter    XMuePBE         ....  0.219520
 Correlation Functional Correlation     .... PBE
   PBE beta parameter  CBetaPBE         ....  0.066725
 LDA part of GGA corr.  LDAOpt          .... PW91-LDA
 Gradients option       PostSCFGGA      .... off
 Hybrid DFT is turned on
   Fraction HF Exchange ScalHFX         ....  0.250000
   Scaling of DF-GGA-X  ScalDFX         ....  0.750000
   Scaling of DF-GGA-C  ScalDFC         ....  1.000000
   Scaling of DF-LDA-C  ScalLDAC        ....  1.000000
   Perturbative correction              ....  0.000000
   NL short-range parameter             ....  6.900000
 RI-approximation to the Coulomb term is turned on
   Number of AuxJ basis functions       .... 1299
   RIJ-COSX (HFX calculated with COS-X)).... on


General Settings:
 Integral files         IntName         .... KEYPIT-S6
 Hartree-Fock type      HFTyp           .... UHF
 Total Charge           Charge          ....    0
 Multiplicity           Mult            ....    4
 Number of Electrons    NEL             ....  187
 Basis Dimension        Dim             ....  799
 Nuclear Repulsion      ENuc            ....   2424.9147042424 Eh

Convergence Acceleration:
 AO-DIIS                CNVDIIS         .... on
   Start iteration      DIISMaxIt       ....    12
   Startup error        DIISStart       ....  0.200000
   # of expansion vecs  DIISMaxEq       ....     5
   Bias factor          DIISBfac        ....   1.050
   Max. coefficient     DIISMaxC        ....  10.000
 MO-DIIS                CNVKDIIS        .... off
 Trust-Rad. Augm. Hess. CNVTRAH         .... auto
   Auto Start mean grad. ratio tolernc. ....  1.125000
   Auto Start start iteration           ....    50
   Auto Start num. interpolation iter.  ....    10
   Max. Number of Micro iterations      ....    24
   Max. Number of Macro iterations      .... Maxiter - #DIIS iter
   Number of Davidson start vectors     ....     2
   Converg. threshold    (grad. norm)   ....   1.000e-05
   Grad. Scal. Fac. for Micro threshold ....   0.100
   Minimum threshold for Micro iter.    ....   1.000e-02
   NR start threshold (gradient norm)   ....   1.000e-04
   Initial trust radius                 ....   0.400
   Minimum AH scaling param. (alpha)    ....   1.000
   Maximum AH scaling param. (alpha)    .... 1000.000
   Quad. conv. algorithm                .... NR
   White noise on init. David. guess    .... on
   Maximum white noise                  ....   0.010
   Pseudo random numbers                .... off
   Inactive MOs                         .... canonical
   Orbital update algorithm             .... Taylor
   Preconditioner                       .... Diag
   Full preconditioner red. dimension   ....   250
 SOSCF                  CNVSOSCF        .... on
   Start iteration      SOSCFMaxIt      ....   150
   Startup grad/error   SOSCFStart      ....  0.003300
   Hessian update       SOSCFHessUp     .... L-BFGS
 Level Shifting         CNVShift        .... on
   Level shift para.    LevelShift      ....    0.2500
   Turn off err/grad.   ShiftErr        ....    0.0010
 Zerner damping         CNVZerner       .... off
 Static damping         CNVDamp         .... on
   Fraction old density DampFac         ....    0.7000
   Max. Damping (<1)    DampMax         ....    0.9800
   Min. Damping (>=0)   DampMin         ....    0.0000
   Turn off err/grad.   DampErr         ....    0.1000

SCF Procedure:
 Maximum # iterations   MaxIter         ....   125
 SCF integral mode      SCFMode         .... Direct
   Integral package                     .... SHARK and LIBINT hybrid scheme
 Reset frequency        DirectResetFreq ....    20
 Integral Threshold     Thresh          ....  2.500e-11 Eh
 Primitive CutOff       TCut            ....  2.500e-12 Eh

Convergence Tolerance:
 Convergence Check Mode ConvCheckMode   .... Total+1el-Energy
 Convergence forced     ConvForced      .... 0
 Energy Change          TolE            ....  1.000e-08 Eh
 1-El. energy change                    ....  1.000e-05 Eh
 Orbital Gradient       TolG            ....  1.000e-05
 Orbital Rotation angle TolX            ....  1.000e-05
 DIIS Error             TolErr          ....  5.000e-07

------------------------------
INITIAL GUESS: MODEL POTENTIAL
------------------------------
Loading Hartree-Fock densities                     ... done
Calculating cut-offs                               ... done
Initializing the effective Hamiltonian             ... done
Setting up the integral package (SHARK)            ... done
done (   0.2 sec)
Making the grid                                    ... done (   0.2 sec)
Mapping shells                                     ... done
Starting the XC term evaluation                    ... done (   0.1 sec)
  promolecular density results
     # of electrons  =    186.997683070
     EX              =   -194.180831871
     EC              =     -6.617311858
     EX+EC           =   -200.798143729
Transforming the Hamiltonian                       ... done (   0.1 sec)
done (   0.1 sec)
Back transforming the eigenvectors                 ... done (   0.0 sec)
done
                      ------------------
                      INITIAL GUESS DONE (   0.9 sec)
                      ------------------
             **** ENERGY FILE WAS UPDATED (KEYPIT-S6.en.tmp) ****
Finished Guess after   1.2 sec
Maximum memory used throughout the entire GUESS-calculation: 60.2 MB


           ************************************************************
           *        Program running with 16 parallel MPI-processes    *
           *              working on a common directory               *
           ************************************************************

-------------------------------------------------------------------------------------------
                                      ORCA LEAN-SCF
                              memory conserving SCF solver
-------------------------------------------------------------------------------------------

----------------------------------------D-I-I-S--------------------------------------------
Iteration    Energy (Eh)           Delta-E    RMSDP     MaxDP     DIISErr   Damp  Time(sec)
-------------------------------------------------------------------------------------------
               ***  Starting incremental Fock matrix formation  ***
    1    -2320.1479257630762731     0.00e+00  1.61e-03  2.58e-01  2.75e-01  0.700  11.5
Warning: op=0 Small HOMO/LUMO gap (  -1.164) - skipping pre-diagonalization
         LevelShift set to 1.000 Eh
         Will do a full diagonalization
    2    -2320.2181306946704353    -7.02e-02  8.90e-04  1.10e-01  2.53e-01  0.700   7.2
                               ***Turning on AO-DIIS***
    3    -2320.6530117224410787    -4.35e-01  5.63e-04  5.49e-02  9.88e-02  0.700   6.6
    4    -2320.9197344835829426    -2.67e-01  1.23e-03  1.32e-01  5.38e-02  0.000   6.4
    5    -2321.3034539674226835    -3.84e-01  3.94e-04  4.74e-02  1.57e-01  0.000   6.5
    6    -2321.3261058938451242    -2.27e-02  9.42e-05  1.27e-02  1.56e-01  0.700   6.2
    7    -2321.3357067537690455    -9.60e-03  1.42e-04  2.22e-02  1.51e-01  0.700   5.7
    8    -2321.3495343446093102    -1.38e-02  1.66e-04  2.83e-02  1.43e-01  0.700   5.7
    9    -2321.3691274483517191    -1.96e-02  3.12e-04  4.30e-02  1.32e-01  0.700   5.6
   10    -2321.4588874300243333    -8.98e-02  2.84e-04  4.50e-02  6.00e-02  0.700   6.2
   11    -2321.5004712678010037    -4.16e-02  7.66e-04  1.29e-01  2.66e-02  0.000   6.0
   12    -2321.5551722067129958    -5.47e-02  1.25e-04  1.54e-02  4.62e-02  0.000   6.3
   13    -2321.5706159044175365    -1.54e-02  1.10e-04  1.24e-02  3.58e-02  0.000   5.7
   14    -2321.5827716553603750    -1.22e-02  1.06e-04  1.12e-02  2.80e-02  0.000   5.8
   15    -2321.5929671029953170    -1.02e-02  9.79e-05  1.20e-02  2.33e-02  0.000   5.8
   16    -2321.6015853027256526    -8.62e-03  7.67e-05  9.58e-03  2.00e-02  0.000   5.5
   17    -2321.6076614973235337    -6.08e-03  8.82e-05  1.17e-02  1.79e-02  0.000   5.5
   18    -2321.6130003140870031    -5.34e-03  7.34e-05  9.63e-03  1.64e-02  0.000   5.6
   19    -2321.6173103770961461    -4.31e-03  7.19e-05  1.08e-02  1.43e-02  0.000   5.6
   20    -2321.6208035539957564    -3.49e-03  5.95e-05  8.27e-03  1.24e-02  0.000   5.6
               *** Restarting incremental Fock matrix formation ***
                             ****Resetting DIIS****
   21    -2321.6233869542038519    -2.58e-03  2.91e-04  4.65e-02  1.06e-02  0.000   7.9
   22    -2321.6296446170108538    -6.26e-03  1.06e-04  1.53e-02  1.30e-02  0.000   6.1
   23    -2321.6310596393614105    -1.42e-03  6.25e-05  8.26e-03  6.16e-03  0.000   5.7
   24    -2321.6320834051157362    -1.02e-03  3.34e-05  5.39e-03  4.20e-03  0.000   5.5
   25    -2321.6325394065761429    -4.56e-04  3.25e-05  7.09e-03  4.18e-03  0.000   5.2
   26    -2321.6330527362715657    -5.13e-04  4.11e-05  8.25e-03  3.95e-03  0.000   5.3
   27    -2321.6335927534601069    -5.40e-04  6.03e-05  1.40e-02  3.63e-03  0.000   5.2
                              *** Initializing SOSCF ***
---------------------------------------S-O-S-C-F--------------------------------------
Iteration    Energy (Eh)           Delta-E    RMSDP     MaxDP     MaxGrad    Time(sec)
--------------------------------------------------------------------------------------
   28    -2321.6343646977711614    -7.72e-04  5.11e-05  1.17e-02  3.02e-03     5.9
               *** Restarting incremental Fock matrix formation ***
   29    -2321.6349218878767715    -5.57e-04  3.31e-05  4.44e-03  2.11e-03    11.8
   30    -2321.6350762427227892    -1.54e-04  1.15e-04  2.36e-02  1.88e-03     8.3
   31    -2321.6357148428478467    -6.39e-04  9.90e-05  2.08e-02  9.43e-04     9.2
   32    -2321.6357717012297144    -5.69e-05  4.29e-05  3.65e-03  2.41e-03     9.1
   33    -2321.6359095544439697    -1.38e-04  3.42e-05  4.88e-03  9.84e-04     8.6
   34    -2321.6359406689589377    -3.11e-05  1.40e-05  1.63e-03  4.66e-04     8.4
   35    -2321.6359606433998124    -2.00e-05  2.55e-05  3.43e-03  3.35e-04     7.7
   36    -2321.6359867947494422    -2.62e-05  3.77e-05  6.57e-03  4.59e-04     7.8
   37    -2321.6360449882467947    -5.82e-05  1.15e-04  1.85e-02  5.44e-04     8.2
   38    -2321.6361633670640003    -1.18e-04  8.05e-05  1.54e-02  2.61e-03     8.9
               *** Scaled step length from 0.218186 to 0.200000 ***
   39    -2321.6363164890799453    -1.53e-04  1.74e-04  3.46e-02  3.88e-03     8.7
               *** Scaled step length from 0.280482 to 0.200000 ***
   40    -2321.6368709724665678    -5.54e-04  1.82e-04  3.31e-02  6.77e-03     9.3
   41    -2321.6376912954601721    -8.20e-04  1.12e-04  2.29e-02  6.00e-03     9.4
               *** Scaled step length from 0.323844 to 0.200000 ***
   42    -2321.6391384083126468    -1.45e-03  1.96e-04  3.64e-02  3.63e-03     9.0
   43    -2321.6398752751911161    -7.37e-04  1.60e-04  2.98e-02  1.82e-03     9.3
   44    -2321.6403452597460273    -4.70e-04  4.96e-05  6.42e-03  2.17e-03     9.2
   45    -2321.6404099991859766    -6.47e-05  2.56e-05  3.02e-03  1.84e-03     8.7
   46    -2321.6405191648036634    -1.09e-04  1.73e-05  2.49e-03  6.39e-04     8.2
   47    -2321.6405485832592603    -2.94e-05  1.61e-05  2.84e-03  6.68e-04     7.8
   48    -2321.6405693786955453    -2.08e-05  2.72e-05  5.04e-03  6.14e-04     7.6
               *** Restarting incremental Fock matrix formation ***
   49    -2321.6406051013527758    -3.57e-05  4.27e-05  7.84e-03  5.50e-04    11.9
   50    -2321.6406384437750603    -3.33e-05  3.55e-05  6.83e-03  6.53e-04     8.1
   51    -2321.6406576995250362    -1.93e-05  1.40e-05  2.14e-03  4.14e-04     8.1
   52    -2321.6406694738388978    -1.18e-05  1.01e-05  1.54e-03  2.95e-04     7.4
   53    -2321.6406773749977219    -7.90e-06  1.12e-05  1.97e-03  2.38e-04     7.4
   54    -2321.6406873441228527    -9.97e-06  4.48e-05  7.70e-03  2.12e-04     7.4
   55    -2321.6407186070564421    -3.13e-05  6.62e-05  1.36e-02  2.97e-04     8.1

       ******************************************************************************
       ***                                                                        ***
       ***                               Auto-TRAH                                ***
       ***                               ---------                                ***
       *** the maximum gradient error decreased on average only by a factor   1.1 ***
       *** during the last  10 iterations                                         ***
       ***                                                                        ***
       ***               Leaving SCF to start the TRAH-SCF procedure              ***
       ***                                                                        ***
       ******************************************************************************

 --------------------------------------------------------------------------------------------
   Iter.        energy            ||Error||_2        Shift      TRadius  Mac/Mic        Rej.
 --------------------------------------------------------------------------------------------
    0      -2321.640782428394     3.267924e-03                     0.400 (TRAH MAcro)   No
    0     dE    -7.349050e-06     2.043470e-03    -7.3490e-06      0.004 (TRAH MIcro)
    0     dE    -1.399799e-05     1.690583e-03    -1.3997e-05      0.010 (TRAH MIcro)
    0     dE    -1.557396e-05     1.121230e-03    -1.5572e-05      0.012 (TRAH MIcro)
    0     dE    -1.751672e-05     1.346306e-03    -1.7513e-05      0.015 (TRAH MIcro)
    0     dE    -1.914097e-05     1.618139e-03    -1.9134e-05      0.019 (TRAH MIcro)
    0     dE    -2.163005e-05     1.652300e-03    -2.1616e-05      0.026 (TRAH MIcro)
    0     dE    -2.460934e-05     1.535056e-03    -2.4580e-05      0.035 (TRAH MIcro)
    0     dE    -2.601185e-05     1.261151e-03    -2.5971e-05      0.039 (TRAH MIcro)
    0     dE    -2.724663e-05     8.283165e-04    -2.7195e-05      0.044 (TRAH MIcro)
    0     dE    -2.778320e-05     6.989489e-04    -2.7726e-05      0.046 (TRAH MIcro)
    0     dE    -2.824090e-05     7.039467e-04    -2.8178e-05      0.047 (TRAH MIcro)
    0     dE    -2.878876e-05     8.091165e-04    -2.8718e-05      0.050 (TRAH MIcro)
    0     dE    -2.943602e-05     8.322406e-04    -2.9356e-05      0.052 (TRAH MIcro)
    0     dE    -3.021707e-05     8.553849e-04    -3.0122e-05      0.056 (TRAH MIcro)
    0     dE    -3.089362e-05     8.374956e-04    -3.0784e-05      0.060 (TRAH MIcro)
    0     dE    -3.170590e-05     8.276923e-04    -3.1575e-05      0.064 (TRAH MIcro)
    0     dE    -3.255752e-05     9.866846e-04    -3.2399e-05      0.070 (TRAH MIcro)
    0     dE    -3.352563e-05     8.379396e-04    -3.3331e-05      0.076 (TRAH MIcro)
    0     dE    -3.425723e-05     7.669602e-04    -3.4030e-05      0.082 (TRAH MIcro)
    0     dE    -3.493520e-05     8.152268e-04    -3.4673e-05      0.087 (TRAH MIcro)
    0     dE    -3.549832e-05     5.169998e-04    -3.5204e-05      0.091 (TRAH MIcro)
    0     dE    -3.573868e-05     3.415493e-04    -3.5430e-05      0.093 (TRAH MIcro)
    0     dE    -3.582505e-05     2.213261e-04    -3.5511e-05      0.094 (TRAH MIcro)
    1      -2321.640820834677     8.725039e-04                     0.480 (TRAH MAcro)   No
    1     dE    -2.818690e-07     3.581224e-04    -2.8187e-07      0.001 (TRAH MIcro)
    1     dE    -3.773533e-07     2.988071e-04    -3.7735e-07      0.001 (TRAH MIcro)
    1     dE    -4.575034e-07     3.333592e-04    -4.5750e-07      0.002 (TRAH MIcro)
    1     dE    -5.698017e-07     3.554685e-04    -5.6980e-07      0.003 (TRAH MIcro)
    1     dE    -6.871262e-07     3.866550e-04    -6.8711e-07      0.005 (TRAH MIcro)
    1     dE    -8.492884e-07     4.587666e-04    -8.4925e-07      0.007 (TRAH MIcro)
    1     dE    -1.017148e-06     4.563034e-04    -1.0171e-06      0.009 (TRAH MIcro)
    1     dE    -1.152121e-06     3.209732e-04    -1.1520e-06      0.012 (TRAH MIcro)
    1     dE    -1.256198e-06     3.553782e-04    -1.2560e-06      0.013 (TRAH MIcro)
    1     dE    -1.414991e-06     5.039880e-04    -1.4146e-06      0.016 (TRAH MIcro)
    1     dE    -1.660436e-06     4.705590e-04    -1.6597e-06      0.021 (TRAH MIcro)
    1     dE    -1.840193e-06     3.171994e-04    -1.8391e-06      0.024 (TRAH MIcro)
    1     dE    -1.971271e-06     3.097929e-04    -1.9699e-06      0.027 (TRAH MIcro)
    1     dE    -2.090259e-06     3.387499e-04    -2.0885e-06      0.029 (TRAH MIcro)
    1     dE    -2.192931e-06     3.378803e-04    -2.1908e-06      0.031 (TRAH MIcro)
    1     dE    -2.313748e-06     3.066425e-04    -2.3111e-06      0.034 (TRAH MIcro)
    1     dE    -2.449107e-06     3.947028e-04    -2.4458e-06      0.037 (TRAH MIcro)
    1     dE    -2.614836e-06     3.737805e-04    -2.6106e-06      0.040 (TRAH MIcro)
    1     dE    -2.736735e-06     2.634602e-04    -2.7316e-06      0.043 (TRAH MIcro)
    1     dE    -2.845821e-06     3.351778e-04    -2.8399e-06      0.046 (TRAH MIcro)
    1     dE    -2.956784e-06     2.581539e-04    -2.9498e-06      0.049 (TRAH MIcro)
    1     dE    -3.001512e-06     1.525703e-04    -2.9941e-06      0.050 (TRAH MIcro)
    1     dE    -3.018294e-06     9.711904e-05    -3.0107e-06      0.050 (TRAH MIcro)
    2      -2321.640824628886     2.865145e-04                     0.576 (TRAH MAcro)   No
    2     dE    -2.894044e-08     1.438697e-04    -2.8941e-08      0.000 (TRAH MIcro)
    2     dE    -4.332303e-08     1.167483e-04    -4.3323e-08      0.000 (TRAH MIcro)
    2     dE    -5.753799e-08     1.438695e-04    -5.7538e-08      0.001 (TRAH MIcro)
    2     dE    -7.900248e-08     1.562489e-04    -7.9002e-08      0.001 (TRAH MIcro)
    2     dE    -1.009255e-07     1.730480e-04    -1.0093e-07      0.002 (TRAH MIcro)
    2     dE    -1.345954e-07     1.829227e-04    -1.3459e-07      0.003 (TRAH MIcro)
    2     dE    -1.594382e-07     1.576788e-04    -1.5944e-07      0.004 (TRAH MIcro)
    2     dE    -1.778364e-07     1.143988e-04    -1.7783e-07      0.005 (TRAH MIcro)
    2     dE    -1.932905e-07     1.359181e-04    -1.9328e-07      0.006 (TRAH MIcro)
    2     dE    -2.152724e-07     1.775504e-04    -2.1526e-07      0.007 (TRAH MIcro)
    2     dE    -2.499092e-07     1.834785e-04    -2.4989e-07      0.008 (TRAH MIcro)
    2     dE    -2.830543e-07     1.735597e-04    -2.8303e-07      0.010 (TRAH MIcro)
    2     dE    -3.137455e-07     1.645417e-04    -3.1371e-07      0.011 (TRAH MIcro)
    2     dE    -3.413974e-07     1.581532e-04    -3.4134e-07      0.013 (TRAH MIcro)
    2     dE    -3.805692e-07     2.058430e-04    -3.8049e-07      0.015 (TRAH MIcro)
    2     dE    -4.335944e-07     2.238662e-04    -4.3346e-07      0.018 (TRAH MIcro)
    2     dE    -4.921183e-07     2.382791e-04    -4.9190e-07      0.021 (TRAH MIcro)
    2     dE    -5.501040e-07     2.295108e-04    -5.4978e-07      0.024 (TRAH MIcro)
    2     dE    -5.897516e-07     1.490130e-04    -5.8934e-07      0.027 (TRAH MIcro)
    2     dE    -6.114670e-07     1.214210e-04    -6.1099e-07      0.028 (TRAH MIcro)
    2     dE    -6.249407e-07     9.143778e-05    -6.2443e-07      0.029 (TRAH MIcro)
    2     dE    -6.319434e-07     5.823890e-05    -6.3141e-07      0.029 (TRAH MIcro)
    2     dE    -6.346258e-07     4.411654e-05    -6.3409e-07      0.029 (TRAH MIcro)
    3      -2321.640825516517     1.099750e-04                     0.691 (TRAH MAcro)   No
    3     dE    -4.427305e-09     5.215897e-05    -4.4276e-09      0.000 (TRAH MIcro)
    3     dE    -6.900681e-09     4.770463e-05    -6.9008e-09      0.000 (TRAH MIcro)
    3     dE    -9.081080e-09     5.643710e-05    -9.0811e-09      0.000 (TRAH MIcro)
    3     dE    -1.200422e-08     5.642332e-05    -1.2004e-08      0.001 (TRAH MIcro)
    3     dE    -1.584568e-08     7.399561e-05    -1.5846e-08      0.001 (TRAH MIcro)
    3     dE    -2.507962e-08     1.239684e-04    -2.5080e-08      0.002 (TRAH MIcro)
    3     dE    -4.068928e-08     1.379129e-04    -4.0689e-08      0.003 (TRAH MIcro)
    3     dE    -5.501358e-08     1.021372e-04    -5.5012e-08      0.005 (TRAH MIcro)
    3     dE    -6.620862e-08     1.082326e-04    -6.6206e-08      0.006 (TRAH MIcro)
    3     dE    -8.082187e-08     1.363833e-04    -8.0818e-08      0.007 (TRAH MIcro)
    3     dE    -9.794465e-08     1.371255e-04    -9.7937e-08      0.009 (TRAH MIcro)
    3     dE    -1.223101e-07     1.496494e-04    -1.2229e-07      0.011 (TRAH MIcro)
    3     dE    -1.440319e-07     1.290304e-04    -1.4400e-07      0.014 (TRAH MIcro)
    3     dE    -1.565935e-07     8.409216e-05    -1.5656e-07      0.015 (TRAH MIcro)
    3     dE    -1.641346e-07     8.296470e-05    -1.6409e-07      0.016 (TRAH MIcro)
    3     dE    -1.721820e-07     7.944829e-05    -1.7213e-07      0.017 (TRAH MIcro)
    3     dE    -1.793398e-07     7.649945e-05    -1.7928e-07      0.018 (TRAH MIcro)
    3     dE    -1.865100e-07     8.752347e-05    -1.8645e-07      0.018 (TRAH MIcro)
    3     dE    -1.931218e-07     7.076777e-05    -1.9305e-07      0.019 (TRAH MIcro)
    3     dE    -1.987894e-07     6.712277e-05    -1.9871e-07      0.020 (TRAH MIcro)
    3     dE    -2.021311e-07     5.135734e-05    -2.0205e-07      0.020 (TRAH MIcro)
    3     dE    -2.039275e-07     2.714875e-05    -2.0384e-07      0.020 (TRAH MIcro)
    3     dE    -2.044244e-07     1.897928e-05    -2.0434e-07      0.020 (TRAH MIcro)
    4      -2321.640825845635     5.587039e-05                           (NR   MAcro)
    4     dE    -1.438756e-09     3.225522e-05                           (NR   MIcro)
    4     dE    -2.357746e-09     3.521551e-05                           (NR   MIcro)
    4     dE    -3.707234e-09     4.206518e-05                           (NR   MIcro)
    4     dE    -5.536062e-09     4.495317e-05                           (NR   MIcro)
    4     dE    -8.242137e-09     6.909803e-05                           (NR   MIcro)
    4     dE    -1.663512e-08     1.157049e-04                           (NR   MIcro)
    4     dE    -2.797443e-08     1.086340e-04                           (NR   MIcro)
    4     dE    -3.599717e-08     7.242426e-05                           (NR   MIcro)
    4     dE    -4.144774e-08     7.185171e-05                           (NR   MIcro)
    4     dE    -4.691361e-08     8.187435e-05                           (NR   MIcro)
    4     dE    -5.487900e-08     9.370499e-05                           (NR   MIcro)
    4     dE    -6.572683e-08     1.002948e-04                           (NR   MIcro)
    4     dE    -7.503144e-08     7.717158e-05                           (NR   MIcro)
    4     dE    -8.055821e-08     6.780334e-05                           (NR   MIcro)
    4     dE    -8.691787e-08     7.959964e-05                           (NR   MIcro)
    4     dE    -9.487751e-08     8.283975e-05                           (NR   MIcro)
    4     dE    -1.033895e-07     9.635838e-05                           (NR   MIcro)
    4     dE    -1.115755e-07     8.075216e-05                           (NR   MIcro)
    4     dE    -1.160682e-07     5.230248e-05                           (NR   MIcro)
    4     dE    -1.188132e-07     4.675341e-05                           (NR   MIcro)
    4     dE    -1.208970e-07     3.685151e-05                           (NR   MIcro)
    4     dE    -1.221719e-07     2.815853e-05                           (NR   MIcro)
    4     dE    -1.227915e-07     2.102310e-05                           (NR   MIcro)
    4     dE    -1.231185e-07     1.111276e-05                           (NR   MIcro)
    5      -2321.640826078858     4.272421e-05                           (NR   MAcro)
    5     dE    -1.629604e-09     3.120629e-05                           (NR   MIcro)
    5     dE    -2.302219e-09     3.647941e-05                           (NR   MIcro)
    5     dE    -4.075163e-09     4.423461e-05                           (NR   MIcro)
    5     dE    -5.833671e-09     5.321601e-05                           (NR   MIcro)
    5     dE    -9.339358e-09     7.356384e-05                           (NR   MIcro)
    5     dE    -1.683244e-08     1.025032e-04                           (NR   MIcro)
    5     dE    -2.478592e-08     9.016704e-05                           (NR   MIcro)
    5     dE    -3.078678e-08     6.816646e-05                           (NR   MIcro)
    5     dE    -3.606207e-08     8.214551e-05                           (NR   MIcro)
    5     dE    -4.292270e-08     1.026673e-04                           (NR   MIcro)
    5     dE    -5.193279e-08     7.486368e-05                           (NR   MIcro)
    5     dE    -5.789822e-08     7.248058e-05                           (NR   MIcro)
    5     dE    -6.823730e-08     9.512379e-05                           (NR   MIcro)
    5     dE    -8.020089e-08     1.215599e-04                           (NR   MIcro)
    5     dE    -1.023261e-07     1.363128e-04                           (NR   MIcro)
    5     dE    -1.227373e-07     1.333973e-04                           (NR   MIcro)
    5     dE    -1.407751e-07     1.049582e-04                           (NR   MIcro)
    5     dE    -1.470631e-07     5.049876e-05                           (NR   MIcro)
    5     dE    -1.486649e-07     2.840818e-05                           (NR   MIcro)
    5     dE    -1.494965e-07     2.719635e-05                           (NR   MIcro)
    5     dE    -1.505609e-07     3.169862e-05                           (NR   MIcro)
    5     dE    -1.516831e-07     3.143453e-05                           (NR   MIcro)
    5     dE    -1.528152e-07     2.458606e-05                           (NR   MIcro)
    5     dE    -1.532993e-07     2.009909e-05                           (NR   MIcro)
    6      -2321.640826440141     6.297743e-05                           (NR   MAcro)
    6     dE    -2.924077e-09     4.154272e-05                           (NR   MIcro)
    6     dE    -4.375256e-09     4.797485e-05                           (NR   MIcro)
    6     dE    -7.516994e-09     6.008117e-05                           (NR   MIcro)
    6     dE    -1.091154e-08     7.284611e-05                           (NR   MIcro)
    6     dE    -1.774105e-08     1.051316e-04                           (NR   MIcro)
[...]
 50:    692.28   0.001670    8.44  0.000753  (-0.001409  0.026911 -0.005141)
 51:    750.63   0.009827   49.66  0.004085  (-0.057149 -0.015921  0.023785)
 52:    755.20   0.007164   36.20  0.002960  (-0.012501  0.049510 -0.018780)
 53:    778.32   0.000062    0.32  0.000025  ( 0.004268  0.000068 -0.002603)
 54:    841.63   0.000077    0.39  0.000029  (-0.004818 -0.000268  0.002334)
 55:    870.22   0.000034    0.17  0.000012  ( 0.000341  0.002429 -0.002488)
 56:    875.35   0.005801   29.32  0.002068  (-0.000687 -0.040825  0.020022)
 57:    881.46   0.001340    6.77  0.000474  (-0.020042 -0.005376  0.006611)
 58:    896.39   0.000754    3.81  0.000262  (-0.001496  0.014996 -0.005945)
 59:    918.15   0.002006   10.14  0.000682  ( 0.025051 -0.000204 -0.007374)
 60:    939.75   0.000323    1.63  0.000107  (-0.004530  0.004531  0.008142)
 61:    941.77   0.000871    4.40  0.000289  ( 0.001000  0.016862  0.001814)
 62:    956.13   0.000317    1.60  0.000103  (-0.001709  0.003035  0.009557)
 63:    962.05   0.001442    7.29  0.000468  (-0.001479  0.020600 -0.006410)
 64:   1087.65   0.026493  133.89  0.007601  ( 0.019209 -0.041173  0.074412)
 65:   1091.23   0.020374  102.96  0.005826  ( 0.002181  0.076296 -0.000745)
 66:   1096.59   0.007488   37.84  0.002131  (-0.006898 -0.011640 -0.044136)
 67:   1102.05   0.001702    8.60  0.000482  (-0.002688 -0.019783 -0.009133)
 68:   1118.21   0.001505    7.60  0.000420  (-0.004181 -0.011848  0.016190)
 69:   1121.10   0.004052   20.48  0.001128  ( 0.027210 -0.002048  0.019582)
 70:   1163.33   0.002427   12.26  0.000651  ( 0.000650  0.024748  0.006175)
 71:   1168.24   0.004325   21.86  0.001155  (-0.000176  0.033853  0.003026)
 72:   1171.39   0.002032   10.27  0.000541  (-0.001404  0.007903 -0.021836)
 73:   1199.13   0.001987   10.04  0.000517  (-0.006016  0.005401  0.021252)
 74:   1210.33   0.000308    1.56  0.000079  ( 0.001466  0.006676  0.005712)
 75:   1291.86   0.003637   18.38  0.000878  (-0.003302  0.025688 -0.014412)
 76:   1294.99   0.000138    0.70  0.000033  (-0.004780 -0.000782 -0.003120)
 77:   1385.15   0.000973    4.92  0.000219  ( 0.012232 -0.003784 -0.007428)
 78:   1389.62   0.000487    2.46  0.000109  (-0.002640 -0.007478 -0.006822)
 79:   1400.11   0.016016   80.94  0.003570  (-0.014976 -0.000003 -0.057839)
 80:   1447.49   0.075933  383.73  0.016370  ( 0.009516  0.118880  0.046337)
 81:   1477.63   0.003413   17.25  0.000721  ( 0.020943  0.004413  0.016211)
 82:   1478.64   0.004858   24.55  0.001025  (-0.008365  0.014048 -0.027533)
 83:   1541.18   0.008293   41.91  0.001679  ( 0.001633  0.040788  0.003600)
 84:   1542.51   0.006569   33.20  0.001329  (-0.007550  0.003411 -0.035500)
 85:   1586.06   0.269277  1360.82  0.052981  ( 0.052593 -0.105518  0.197690)
 86:   1593.33   0.002333   11.79  0.000457  ( 0.021357 -0.000415 -0.000846)
 87:   1593.77   0.009433   47.67  0.001847  (-0.011752  0.008015 -0.040555)
 88:   1644.12   0.010052   50.80  0.001908  ( 0.011191 -0.021211  0.036507)
 89:   1650.24   0.046742  236.22  0.008839  (-0.022842  0.040406 -0.081760)
 90:   1766.23   0.133908  676.72  0.023659  (-0.014559 -0.141101 -0.059480)
 91:   1818.95   0.006228   31.48  0.001069  ( 0.008359 -0.010927  0.029652)
 92:   1843.57   0.057252  289.33  0.009691  (-0.023769  0.038517 -0.087422)
 93:   3272.99   0.010313   52.12  0.000983  ( 0.005822 -0.020575  0.022935)
 94:   3284.69   0.003730   18.85  0.000354  (-0.018247  0.001603 -0.004346)
 95:   3286.59   0.001553    7.85  0.000147  (-0.003742 -0.004235 -0.010749)
 96:   3286.94   0.001380    6.97  0.000131  (-0.000952  0.009496 -0.006317)
 97:   3307.35   0.000153    0.77  0.000014  (-0.003051 -0.000316  0.002239)
 98:   3307.62   0.000045    0.23  0.000004  ( 0.000239  0.001910 -0.000729)
 99:   3613.63   0.048509  245.15  0.004189  (-0.034232 -0.016700  0.052329)
100:   3681.44   0.025241  127.56  0.002140  (-0.005472 -0.043190 -0.015628)
101:   3688.29   0.026658  134.72  0.002256  ( 0.011380 -0.019272 -0.041888)
102:   3734.78   0.014222   71.87  0.001188  (-0.020851  0.020585 -0.018159)
103:   3888.45   0.012081   61.05  0.000970  ( 0.019315 -0.018541 -0.015896)
104:   3900.11   0.012537   63.36  0.001003  ( 0.029524  0.011461 -0.000393)

* The epsilon (eps) is given for a Dirac delta lineshape.
** The dipole moment derivative (T) already includes vibrational overlap.

The first frequency considered to be a vibration is 6
The total number of vibrations considered is 99


--------------------------
THERMOCHEMISTRY AT 298.15K
--------------------------

Temperature         ...   298.15 K
Pressure            ...     1.00 atm
Total Mass          ...   367.18 AMU
Quasi RRHO          ...     True
Cut-Off Frequency   ...     1.00 cm^-1

Throughout the following assumptions are being made:
  (1) The electronic state is orbitally nondegenerate
      but the spin degeneracy is treated
  (2) There are no thermally accessible electronically excited states
  (3) Hindered rotations indicated by low frequency modes are not
      treated as such but are treated as vibrations and this may
      cause some error
  (4) All equations used are the standard statistical mechanics
      equations for an ideal gas
  (5) All vibrations are strictly harmonic

freq.      25.90  E(vib)   ...       0.56 
freq.      32.20  E(vib)   ...       0.55 
freq.      36.57  E(vib)   ...       0.54 
freq.      40.39  E(vib)   ...       0.54 
freq.      47.65  E(vib)   ...       0.53 
freq.      59.61  E(vib)   ...       0.51 
freq.      60.84  E(vib)   ...       0.51 
freq.      69.89  E(vib)   ...       0.50 
freq.      73.66  E(vib)   ...       0.49 
freq.      89.25  E(vib)   ...       0.47 
freq.     117.70  E(vib)   ...       0.44 
freq.     125.11  E(vib)   ...       0.43 
freq.     130.82  E(vib)   ...       0.43 
freq.     149.43  E(vib)   ...       0.40 
freq.     153.15  E(vib)   ...       0.40 
freq.     173.18  E(vib)   ...       0.38 
freq.     189.47  E(vib)   ...       0.36 
freq.     197.47  E(vib)   ...       0.35 
freq.     201.62  E(vib)   ...       0.35 
freq.     209.92  E(vib)   ...       0.34 
freq.     215.45  E(vib)   ...       0.34 
freq.     273.73  E(vib)   ...       0.28 
freq.     294.67  E(vib)   ...       0.27 
freq.     304.34  E(vib)   ...       0.26 
freq.     314.51  E(vib)   ...       0.25 
freq.     317.97  E(vib)   ...       0.25 
freq.     324.86  E(vib)   ...       0.24 
freq.     370.96  E(vib)   ...       0.21 
freq.     401.30  E(vib)   ...       0.19 
freq.     415.96  E(vib)   ...       0.18 
freq.     475.37  E(vib)   ...       0.15 
freq.     504.90  E(vib)   ...       0.14 
freq.     505.78  E(vib)   ...       0.14 
freq.     531.70  E(vib)   ...       0.13 
freq.     551.48  E(vib)   ...       0.12 
freq.     563.79  E(vib)   ...       0.11 
freq.     567.13  E(vib)   ...       0.11 
freq.     570.13  E(vib)   ...       0.11 
freq.     599.19  E(vib)   ...       0.10 
freq.     631.19  E(vib)   ...       0.09 
freq.     636.96  E(vib)   ...       0.09 
freq.     657.43  E(vib)   ...       0.08 
freq.     661.48  E(vib)   ...       0.08 
freq.     691.70  E(vib)   ...       0.07 
freq.     692.28  E(vib)   ...       0.07 
freq.     750.63  E(vib)   ...       0.06 
freq.     755.20  E(vib)   ...       0.06 
freq.     778.32  E(vib)   ...       0.05 
freq.     841.63  E(vib)   ...       0.04 
freq.     870.22  E(vib)   ...       0.04 
freq.     875.35  E(vib)   ...       0.04 
freq.     881.46  E(vib)   ...       0.04 
freq.     896.39  E(vib)   ...       0.03 
freq.     918.15  E(vib)   ...       0.03 
freq.     939.75  E(vib)   ...       0.03 
freq.     941.77  E(vib)   ...       0.03 
freq.     956.13  E(vib)   ...       0.03 
freq.     962.05  E(vib)   ...       0.03 
freq.    1087.65  E(vib)   ...       0.02 
freq.    1091.23  E(vib)   ...       0.02 
freq.    1096.59  E(vib)   ...       0.02 
freq.    1102.05  E(vib)   ...       0.02 
freq.    1118.21  E(vib)   ...       0.01 
freq.    1121.10  E(vib)   ...       0.01 
freq.    1163.33  E(vib)   ...       0.01 
freq.    1168.24  E(vib)   ...       0.01 
freq.    1171.39  E(vib)   ...       0.01 
freq.    1199.13  E(vib)   ...       0.01 
freq.    1210.33  E(vib)   ...       0.01 
freq.    1291.86  E(vib)   ...       0.01 
freq.    1294.99  E(vib)   ...       0.01 
freq.    1385.15  E(vib)   ...       0.00 
freq.    1389.62  E(vib)   ...       0.00 
freq.    1400.11  E(vib)   ...       0.00 
freq.    1447.49  E(vib)   ...       0.00 
freq.    1477.63  E(vib)   ...       0.00 
freq.    1478.64  E(vib)   ...       0.00 
freq.    1541.18  E(vib)   ...       0.00 
freq.    1542.51  E(vib)   ...       0.00 
freq.    1586.06  E(vib)   ...       0.00 
freq.    1593.33  E(vib)   ...       0.00 
freq.    1593.77  E(vib)   ...       0.00 
freq.    1644.12  E(vib)   ...       0.00 
freq.    1650.24  E(vib)   ...       0.00 
freq.    1766.23  E(vib)   ...       0.00 
freq.    1818.95  E(vib)   ...       0.00 
freq.    1843.57  E(vib)   ...       0.00 
freq.    3272.99  E(vib)   ...       0.00 
freq.    3284.69  E(vib)   ...       0.00 
freq.    3286.59  E(vib)   ...       0.00 
freq.    3286.94  E(vib)   ...       0.00 
freq.    3307.35  E(vib)   ...       0.00 
freq.    3307.62  E(vib)   ...       0.00 
freq.    3613.63  E(vib)   ...       0.00 
freq.    3681.44  E(vib)   ...       0.00 
freq.    3688.29  E(vib)   ...       0.00 
freq.    3734.78  E(vib)   ...       0.00 
freq.    3888.45  E(vib)   ...       0.00 
freq.    3900.11  E(vib)   ...       0.00 

------------
INNER ENERGY
------------

The inner energy is: U= E(el) + E(ZPE) + E(vib) + E(rot) + E(trans)
    E(el)   - is the total energy from the electronic structure calculation
              = E(kin-el) + E(nuc-el) + E(el-el) + E(nuc-nuc)
    E(ZPE)  - the the zero temperature vibrational energy from the frequency calculation
    E(vib)  - the the finite temperature correction to E(ZPE) due to population
              of excited vibrational states
    E(rot)  - is the rotational thermal energy
    E(trans)- is the translational thermal energy

Summary of contributions to the inner energy U:
Electronic energy                ...  -2322.01929712 Eh
Zero point energy                ...      0.24638993 Eh     154.61 kcal/mol
Thermal vibrational correction   ...      0.02211962 Eh      13.88 kcal/mol
Thermal rotational correction    ...      0.00141627 Eh       0.89 kcal/mol
Thermal translational correction ...      0.00141627 Eh       0.89 kcal/mol
-----------------------------------------------------------------------
Total thermal energy                  -2321.74795502 Eh


Summary of corrections to the electronic energy:
(perhaps to be used in another calculation)
Total thermal correction                  0.02495217 Eh      15.66 kcal/mol
Non-thermal (ZPE) correction              0.24638993 Eh     154.61 kcal/mol
-----------------------------------------------------------------------
Total correction                          0.27134210 Eh     170.27 kcal/mol


--------
ENTHALPY
--------

The enthalpy is H = U + kB*T
                kB is Boltzmann's constant
Total thermal energy              ...  -2321.74795502 Eh 
Thermal Enthalpy correction       ...      0.00094421 Eh       0.59 kcal/mol
-----------------------------------------------------------------------
Total Enthalpy                    ...  -2321.74701081 Eh


Note: Only C1 symmetry has been detected, increase convergence thresholds 
      if your molecule has a higher symmetry. Symmetry factor of 1.0 is   
      used for the rotational entropy correction. 
 

Note: Rotational entropy computed according to Herzberg 
Infrared and Raman Spectra, Chapter V,1, Van Nostrand Reinhold, 1945 
Point Group:  C1, Symmetry Number:   1  
Rotational constants in cm-1:     0.011584     0.005798     0.004398 

Vibrational entropy computed according to the QRRHO of S. Grimme
Chem.Eur.J. 2012 18 9955 using a reference frequency of 100.0 cm-1


-------
ENTROPY
-------

The entropy contributions are T*S = T*(S(el)+S(vib)+S(rot)+S(trans))
     S(el)   - electronic entropy
     S(vib)  - vibrational entropy
     S(rot)  - rotational entropy
     S(trans)- translational entropy
The entropies will be listed as multiplied by the temperature to get
units of energy

Electronic entropy                ...      0.00130891 Eh      0.82 kcal/mol
Vibrational entropy               ...      0.04035708 Eh     25.32 kcal/mol
Rotational entropy                ...      0.01660865 Eh     10.42 kcal/mol
Translational entropy             ...      0.02071335 Eh     13.00 kcal/mol
-----------------------------------------------------------------------
Final entropy term                ...      0.07898800 Eh     49.57 kcal/mol

In case the symmetry of your molecule has not been determined correctly
or in case you have a reason to use a different symmetry number we print 
out the resulting rotational entropy values for sn=1,12:

 non-linear molecules -----------------------------------
|  sn= 1 | S(rot)=       0.01660865 Eh     10.42 kcal/mol|
|  sn= 2 | S(rot)=       0.01595420 Eh     10.01 kcal/mol|
|  sn= 3 | S(rot)=       0.01557136 Eh      9.77 kcal/mol|
|  sn= 4 | S(rot)=       0.01529974 Eh      9.60 kcal/mol|
|  sn= 5 | S(rot)=       0.01508905 Eh      9.47 kcal/mol|
|  sn= 6 | S(rot)=       0.01491691 Eh      9.36 kcal/mol|
|  sn= 7 | S(rot)=       0.01477136 Eh      9.27 kcal/mol|
|  sn= 8 | S(rot)=       0.01464528 Eh      9.19 kcal/mol|
|  sn= 9 | S(rot)=       0.01453408 Eh      9.12 kcal/mol|
|  sn=10 | S(rot)=       0.01443460 Eh      9.06 kcal/mol|
|  sn=11 | S(rot)=       0.01434461 Eh      9.00 kcal/mol|
|  sn=12 | S(rot)=       0.01426245 Eh      8.95 kcal/mol|
 linear molecules ---------------------------------------
|  Dinfh | S(rot)=       0.01044954 Eh      6.56 kcal/mol|
|  Cinfv | S(rot)=       0.01110399 Eh      6.97 kcal/mol|
 --------------------------------------------------------


-------------------
GIBBS FREE ENERGY
-------------------

The Gibbs free energy is G = H - T*S

Total enthalpy                    ...  -2321.74701081 Eh 
Total entropy correction          ...     -0.07898800 Eh    -49.57 kcal/mol
-----------------------------------------------------------------------
Final Gibbs free energy         ...  -2321.82599881 Eh

For completeness - the Gibbs free energy minus the electronic energy
G-E(el)                           ...      0.19329831 Eh    121.30 kcal/mol


Maximum memory used throughout the entire PROP-calculation: 797.9 MB

--------------------------------
SUGGESTED CITATIONS FOR THIS RUN
--------------------------------

Below you find a list of papers that are relevant to this ORCA run
We neither can nor want to force you to cite these papers, but we appreciate if you do
You receive ORCA, which is the product of decades of hard work by many enthusiastic individuals, for free
The only thing we kindly ask in return is that you cite our papers,
We deeply appreciate it, if you show your appreciation for ORCA by not just citing the generic ORCA reference.

Please note that relegating all ORCA citations to the supporting information does *not* help us.
SI sections are not indexed - citations you put there will not count into any citation statistics
But we need these citations in order to attract the funding resources that allow us to do what we are doing

Therefore, if you are a happy ORCA user, please consider citing a few of the papers listed below in the main body of your paper

In addition to the list printed below, the program has created the file KEYPIT-S6.bibtex that contains the list in bibtex format
You can import this file easily into all common literature databanks and citation aid programs


List of essential papers. We consider these as the minimum necessary citations

  1. Neese,F.
     Software update: the ORCA program system, version 5.0
     WIRES Comput. Molec. Sci., 2022 12(1)e1606
     doi.org/10.1002/wcms.1606

List of papers to cite with high priority. The work reported in these papers was absolutely
necessary for this run to complete.
Our perspective: the developers of density functionals and basis sets usually get cited in chemistry papers
Good! But without the algorithms to do something with them, the functionals or basis sets would not do anything.
Hence, in our opinion, the algorithm design and method developments papers are equally worthy of getting cited

  1. Neese,F.
     An improvement of the resolution of the identity approximation for the formation of the Coulomb matrix
     J. Comp. Chem., 2003 24(14)1740-1747
     doi.org/10.1002/jcc.10318
  2. Neese,F.; Wennmohs,F.; Hansen,A.; Becker,U.
     Efficient, approximate and parallel Hartree-Fock and hybrid DFT calculations. A 'chain-of-spheres' algorithm for the Hartree-Fock exchange
     Chem. Phys., 2009 356(1-3)98-109
     doi.org/10.1016/j.chemphys.2008.10.036
  3. Bykov,D.; Petrenko,T.; Izsak,R.; Kossmann,S.; Becker,U.; Valeev,E.; Neese,F.
     Efficient implementation of the analytic second derivatives of Hartree-Fock and hybrid DFT energies: a detailed analysis of different approximations
     Molec. Phys., 2015 113 1961-1977
     doi.org/10.1080/00268976.2015.1025114
  4. Helmich-Paris,B.; de Souza,B.; Neese,F.; Izsák,R.
     An improved chain of spheres for exchange algorithm
     J. Chem. Phys., 2021 155 104109
     doi.org/doi: 10.1063/5.0058766.
  5. Helmich-Paris,B.
     A trust-region augmented Hessian implementation for restricted and unrestricted Hartree–Fock and Kohn–Sham methods
     J. Chem. Phys., 2021 154 164104
     doi.org/10.1063/5.0040798
  6. Neese,F.
     The SHARK Integral Generation and Digestion System
     J. Comp. Chem., 2022  1-16
     doi.org/10.1002/jcc.26942

List of suggested additional citations. These are papers that are important in the 'surrounding' of 
of this run, or papers that preceded the highly important papers. If you like your results we are grateful for a citation.

  1. Izsak,R.; Neese,F.
     An overlap fitted chain of spheres exchange method
     J. Chem. Phys., 2011 135 144105
     doi.org/10.1063/1.3646921
  2. Izsak,R.; Hansen,A.; Neese,F.
     The resolution of identity and chain of spheres approximations for the LPNO-CCSD singles Fock term
     Molec. Phys., 2012 110 2413-2417
     doi.org/10.1080/00268976.2012.687466
  3. Neese,F.
     The ORCA program system
     WIRES Comput. Molec. Sci., 2012 2(1)73-78
     doi.org/10.1002/wcms.81
  4. Izsak,R.; Neese,F.; Klopper,W.
     Robust fitting techniques in the chain of spheres approximation to the Fock exchange: The role of the complementary space
     J. Chem. Phys., 2013 139 
     doi.org/10.1063/1.4819264
  5. Neese,F.
     Software update: the ORCA program system, version 4.0
     WIRES Comput. Molec. Sci., 2018 8(1)1-6
     doi.org/10.1002/wcms.1327
  6. Neese,F.; Wennmohs,F.; Becker,U.; Riplinger,C.
     The ORCA quantum chemistry program package
     J. Chem. Phys., 2020 152 Art. No. L224108
     doi.org/10.1063/5.0004608

List of optional additional citations

  1. Neese,F.
     Approximate second-order SCF convergence for spin unrestricted wavefunctions
     Chem. Phys. Lett., 2000 325(1-3)93-98
     doi.org/10.1016/s0009-2614(00)00662-x

Timings for individual modules:

Sum of individual times          ...    13350.500 sec (= 222.508 min)
Startup calculation              ...      350.341 sec (=   5.839 min)   2.6 %
SCF iterations                   ...     7085.866 sec (= 118.098 min)  53.1 %
Property integrals               ...     1447.656 sec (=  24.128 min)  10.8 %
SCF Response                     ...     2475.941 sec (=  41.266 min)  18.5 %
Property calculations            ...      555.729 sec (=   9.262 min)   4.2 %
SCF Gradient evaluation          ...     1434.125 sec (=  23.902 min)  10.7 %
Geometry relaxation              ...        0.842 sec (=   0.014 min)   0.0 %
                             ****ORCA TERMINATED NORMALLY****
TOTAL RUN TIME: 0 days 3 hours 43 minutes 37 seconds 733 msec
