
                                 *****************
                                 * O   R   C   A *
                                 *****************

                                            #,                                       
                                            ###                                      
                                            ####                                     
                                            #####                                    
                                            ######                                   
                                           ########,                                 
                                     ,,################,,,,,                         
                               ,,#################################,,                 
                          ,,##########################################,,             
                       ,#########################################, ''#####,          
                    ,#############################################,,   '####,        
                  ,##################################################,,,,####,       
                ,###########''''           ''''###############################       
              ,#####''   ,,,,##########,,,,          '''####'''          '####       
            ,##' ,,,,###########################,,,                        '##       
           ' ,,###''''                  '''############,,,                           
         ,,##''                                '''############,,,,        ,,,,,,###''
      ,#''                                            '''#######################'''  
     '                                                          ''''####''''         
             ,#######,   #######,   ,#######,      ##                                
            ,#'     '#,  ##    ##  ,#'     '#,    #''#        ,####,   ,####,        
            ##       ##  ##   ,#'  ##            #'  '#       #'       #'  '#        
            ##       ##  #######   ##           ,######,      #####,   #    #        
            '#,     ,#'  ##    ##  '#,     ,#' ,#      #,     #,   #   #,  ,#        
             '#######'   ##     ##  '#######'  #'      '#     '####' # '####'        



                #########################################################
                #                        -***-                          #
                #          Department of theory and spectroscopy        #
                #                                                       #
                #                      Frank Neese                      #
                #                                                       #
                #     Directorship, Architecture, Infrastructure        #
                #                    SHARK, DRIVERS                     #
                #        Core code/Algorithms in most modules           #
                #                                                       #
                #        Max Planck Institute fuer Kohlenforschung      #
                #                Kaiser Wilhelm Platz 1                 #
                #                 D-45470 Muelheim/Ruhr                 #
                #                      Germany                          #
                #                                                       #
                #                  All rights reserved                  #
                #                        -***-                          #
                #########################################################


                         Program Version 6.0.1  -  RELEASE   -


 With contributions from (in alphabetic order):
[Max-Planck-Institut fuer Kohlenforschung]                               
  Daniel Aravena         : Magnetic Suceptibility                        
  Michael Atanasov       : Ab Initio Ligand Field Theory (pilot matlab implementation)
  Alexander A. Auer      : GIAO ZORA, VPT2 properties, NMR spectrum      
  Ute Becker             : All parallelization in ORCA, NUMFREQ, NUMCALC 
  Giovanni Bistoni       : ED, misc. LED, open-shell LED, HFLD           
  Martin Brehm           : Molecular dynamics                            
  Dmytro Bykov           : pre 5.0 version of the SCF Hessian            
  Marcos Casanova-Páez   : Triplet and SCS-CIS(D). UHF-(DLPNO)-IP/EA/STEOM-CCSD. UHF-CVS-IP/STEOM-CCSD   
  Vijay G. Chilkuri      : MRCI spin determinant printing, contributions to CSF-ICE 
  Pauline Colinet        : FMM embedding                                 
  Dipayan Datta          : RHF DLPNO-CCSD density                        
  Achintya Kumar Dutta   : EOM-CC, STEOM-CC                              
  Nicolas Foglia         : Exact transition moments, OPA infrastructure, MCD improvements    
  Dmitry Ganyushin       : Spin-Orbit,Spin-Spin,Magnetic field MRCI      
  Miquel Garcia-Rates    : C-PCM and meta-GGA Hessian, CCSD/C-PCM, Gaussian charge scheme 
  Tiago L. C. Gouveia    : GS-ROHF, GS-ROCIS                             
  Yang Guo               : DLPNO-NEVPT2, F12-NEVPT2, CIM, IAO-localization        
  Andreas Hansen         : Spin unrestricted coupled pair/coupled cluster methods 
  Ingolf Harden          : AUTO-CI MPn and infrastructure                
  Benjamin Helmich-Paris : MC-RPA, TRAH-(SCF,CASSCF), AVAS, COSX integrals, SCF dyn. polar. 
  Lee Huntington         : MR-EOM, pCC                                   
  Robert Izsak           : Overlap fitted RIJCOSX, COSX-SCS-MP3, EOM     
  Riya Kayal             : Wick's Theorem for AUTO-CI, AUTO-CI UHF-CCSDT 
  Emily Kempfer          : AUTO-CI, RHF CISDT and CCSDT                  
  Christian Kollmar      : KDIIS, OOCD, Brueckner-CCSD(T), CCSD density, CASPT2, CASPT2-K, improved NEVPT2 
  Axel Koslowski         : Symmetry handling                             
  Simone Kossmann        : meta-GGA functionals, TD-DFT gradient, OOMP2, (MP2 Hessian; deprecated post 5.0) 
  Lucas Lang             : DCDCAS                                        
  Marvin Lechner         : AUTO-CI (C++ implementation), FIC-MRCC        
  Spencer Leger          : CASSCF response                               
  Dagmar Lenk            : GEPOL surface, SMD, ORCA-2-JSON               
  Dimitrios Liakos       : Extrapolation schemes; Compound Job, initial MDCI parallelization 
  Dimitrios Manganas     : Further ROCIS development; embedding schemes. LFT, Crystal Embedding 
  Dimitrios Pantazis     : SARC Basis sets                               
  Anastasios Papadopoulos: AUTO-CI, single reference methods and gradients 
  Taras Petrenko         : pre 6.0 DFT Hessian and TD-DFT gradient, (ASA, deprecated), ECA, 1-Electron XAS/XES, NRVS 
  Peter Pinski           : DLPNO-MP2, DLPNO-MP2 Gradient                 
  Christoph Reimann      : Effective Core Potentials                     
  Marius Retegan         : Local ZFS, SOC                                
  Christoph Riplinger    : Optimizer, TS searches, QM/MM, DLPNO-CCSD(T), (RO)-DLPNO pert. Triples 
  Michael Roemelt        : Original ROCIS implementation                 
  Masaaki Saitow         : Open-shell DLPNO-CCSD energy and density      
  Barbara Sandhoefer     : DKH picture change effects                    
  Kantharuban Sivalingam : CASSCF convergence/infrastructure, NEVPT2 and variants, FIC-MRCI 
  Bernardo de Souza      : ESD, SOC TD-DFT                               
  Georgi L. Stoychev     : AutoAux, RI-MP2 NMR, DLPNO-MP2 response, X2C  
  Van Anh Tran           : RI-MP2 g-tensors                              
  Willem Van den Heuvel  : Paramagnetic NMR                              
  Zikuan Wang            : NOTCH, Electric field optimization            
  Frank Wennmohs         : Technical directorship and infrastructure     
  Hang Xu                : AUTO-CI-Response properties                   
                                                                         
[FACCTs GmbH]                                                            
  Markus Bursch, Miquel Garcia-Rates, Christoph Riplinger, Bernardo de Souza, Georgi L. Stoychev 
                                                                 
  APM, Basis sets (HGBS, AHGBS, def-TZVP (Ac-Lr), def2-XVPD (La-Lu)), CI-OPT, improved COSX, DLPNO-Multilevel,           
  DOCKER, DRACO, updates on ESD, GOAT, IRC, LR-CPCM, MBIS, meta-GGA TD-DFT gradient, ML-optimized integration grids, 
  MM, NACMEs, nearIR, NEB, NEB-TS, NL-DFT gradient (VV10), 2- and 3-layer-ONIOM, interface openCOSMO-RS, QMMM,   
  Crystal-QMMM, SF, symmetry and pop. for TD-DFT, r2SCAN hybrids, SOLVATOR                                   
                                                                         
[Other institutions]                                                     
  V. Asgeirsson          : NEB                                           
  Christoph Bannwarth    : sTDA-DFT, sTD-DFT, PBEh-3c, B97-3c, D3        
  Sebastian Ehlert       : rSCAN, r2SCAN, r2SCAN-3c, D4, dhf basis sets  
  Marvin Friede          : D4 for Fr, Ra, Ac-Lr                          
  Lars Goerigk           : TD-DFT with DH, B97 family of functionals     
  Stefan Grimme          : VdW corrections, initial TS optimization, DFT functionals, gCP, sTDA/sTD-DF 
  Waldemar Hujo          : DFT-NL                                        
  H. Jonsson             : NEB                                           
  Holger Kruse           : gCP                                           
  Marcel Mueller         : wB97X-3c, vDZP basis set                      
  Hagen Neugebauer       : wr2SCAN                                       
  Tobias Risthaus        : range-separated hybrid DFT                    
  Lukas Wittmann         : regularized MP2, r2SCAN double-hybrids, wr2SCAN        
                                                                         
We gratefully acknowledge several colleagues who have allowed us to      
interface, adapt or use parts of their codes:                            
  Ed Valeev, F. Pavosevic, A. Kumar             : LibInt (2-el integral package), F12 methods 
  Garnet Chan, S. Sharma, J. Yang, R. Olivares  : DMRG                   
  Ulf Ekstrom                                   : XCFun DFT Library      
  Mihaly Kallay                                 : mrcc  (arbitrary order and MRCC methods)
  Frank Weinhold                                : gennbo (NPA and NBO analysis)           
  Simon Mueller                                 : openCOSMO-RS                            
  Christopher J. Cramer and Donald G. Truhlar   : smd solvation model                     
  S Lehtola, MJT Oliveira, MAL Marques          : LibXC Library                           
  Liviu Ungur et al                             : ANISO software                          


 Your calculation uses the libint2 library for the computation of 2-el integrals
 For citations please refer to: http://libint.valeyev.net

 Your ORCA version has been built with support for libXC version: 6.2.2
 For citations please refer to: https://libxc.gitlab.io

 This ORCA versions uses:
   CBLAS   interface :  Fast vector & matrix operations
   LAPACKE interface :  Fast linear algebra routines
   SCALAPACK package :  Parallel linear algebra routines
   Shared memory     :  Shared parallel matrices
   BLAS/LAPACK       :  OpenBLAS 0.3.27  USE64BITINT DYNAMIC_ARCH NO_AFFINITY Cooperlake SINGLE_THREADED
        Core in use  :  Cooperlake
   Copyright (c) 2011-2014, The OpenBLAS Project


NOTE: MaxCore=3600 MB was set to SCF,MP2,MDCI,CIPSI,MRCI and CIS
      => If you want to overwrite this, your respective input block should be placed after the MaxCore statement
Warning: RI is on but no J-basis has been assigned. Assigning Def2/J (nothing to worry about!)
================================================================================

----- Orbital basis set information -----
Your calculation utilizes the basis: def2-TZVP
   F. Weigend and R. Ahlrichs, Phys. Chem. Chem. Phys. 7, 3297 (2005).

----- AuxJ basis set information -----
Your calculation utilizes the auxiliary basis: def2/J
   F. Weigend, Phys. Chem. Chem. Phys. 8, 1057 (2006).

================================================================================
                                        WARNINGS
                       Please study these warnings very carefully!
================================================================================


WARNING: your system is open-shell and RHF/RKS was chosen
  ===> : WILL SWITCH to UHF/UKS


WARNING: Geometry Optimization
  ===> : Switching off AutoStart
         For restart on a previous wavefunction, please use MOREAD

================================================================================
                                       INPUT FILE
================================================================================
NAME = MNPHCY21-S4.inp
|  1> ! PBE0 def2-TZVP  Opt Freq DEFGRID3
|  2> 
|  3> %maxcore 3600
|  4> 
|  5> %pal
|  6>     nprocs 16
|  7> end
|  8> 
|  9> *xyz 0 4
| 10> N 2.1015 0.1408 2.6778
| 11> Mn 0.0 0.0 0.0
| 12> N 0.1086 1.0677 1.6149
| 13> N -1.8196 2.5189 1.2883
| 14> N -1.6031 0.9473 -0.5588
| 15> C 1.0553 0.9586 2.6313
| 16> C 0.7348 1.9054 3.6809
| 17> C 1.3327 2.1652 4.9228
| 18> C 0.7335 3.14 5.7153
| 19> C -0.4162 3.8288 5.2991
| 20> C -1.0054 3.5804 4.0622
| 21> C -0.4042 2.5966 3.2664
| 22> C -0.7711 2.0713 1.9747
| 23> C -2.2083 1.9737 0.1409
| 24> C -3.4105 2.3861 -0.5472
| 25> C -4.3802 3.341 -0.2272
| 26> C -5.4507 3.4756 -1.1142
| 27> C -5.5421 2.6948 -2.2732
| 28> C -4.5743 1.7466 -2.5899
| 29> C -3.5024 1.6044 -1.7028
| 30> C 2.3546 -0.7126 1.7045
| 31> H 2.1501 1.6499 5.2063
| 32> H 1.1446 3.3709 6.6488
| 33> H -0.7838 4.5561 5.8695
| 34> H -1.839 4.0109 3.7472
| 35> H -4.3336 3.9113 0.5637
| 36> H -6.1774 4.1721 -0.9451
| 37> H -6.3247 2.8019 -2.9016
| 38> H -4.6521 1.2279 -3.3824
| 39> N -0.1086 -1.0677 -1.6149
| 40> N 1.6031 -0.9473 0.5588
| 41> C -2.3546 0.7126 -1.7045
| 42> C 3.5024 -1.6044 1.7028
| 43> C -1.0553 -0.9586 -2.6313
| 44> C 0.7711 -2.0713 -1.9747
| 45> C 2.2083 -1.9737 -0.1409
| 46> N -2.1015 -0.1408 -2.6778
| 47> C 3.4105 -2.3861 0.5472
| 48> C 4.5743 -1.7466 2.5899
| 49> C -0.7348 -1.9054 -3.6809
| 50> N 1.8196 -2.5189 -1.2883
| 51> C 0.4042 -2.5966 -3.2664
| 52> C 4.3802 -3.341 0.2272
| 53> C 5.5421 -2.6948 2.2732
| 54> H 4.6521 -1.2279 3.3824
| 55> C -1.3327 -2.1652 -4.9228
| 56> C 1.0054 -3.5804 -4.0622
| 57> C 5.4507 -3.4756 1.1142
| 58> H 4.3336 -3.9113 -0.5637
| 59> H 6.3247 -2.8019 2.9016
| 60> C -0.7335 -3.14 -5.7153
| 61> H -2.1501 -1.6499 -5.2063
| 62> C 0.4162 -3.8288 -5.2991
| 63> H 1.839 -4.0109 -3.7472
| 64> H 6.1774 -4.1721 0.9451
| 65> H -1.1446 -3.3709 -6.6488
| 66> H 0.7838 -4.5561 -5.8695
| 67> *
| 68> 
| 69>                          ****END OF INPUT****
================================================================================

                       *****************************
                       * Geometry Optimization Run *
                       *****************************

Geometry optimization settings:
Update method            Update   .... BFGS
Choice of coordinates    CoordSys .... (2022) Redundant Internals
Initial Hessian          InHess   .... Almloef's Model
Max. no of cycles        MaxIter  .... 171

Convergence Tolerances:
Energy Change            TolE     ....  5.0000e-06 Eh
Max. Gradient            TolMAXG  ....  3.0000e-04 Eh/bohr
RMS Gradient             TolRMSG  ....  1.0000e-04 Eh/bohr
Max. Displacement        TolMAXD  ....  4.0000e-03 bohr
RMS Displacement         TolRMSD  ....  2.0000e-03 bohr
Strict Convergence                .... False

------------------------------------------------------------------------------
                        ORCA OPTIMIZATION COORDINATE SETUP
------------------------------------------------------------------------------

The optimization will be done in redundant internal coordinates (2022)
Making redundant internal coordinates   ...  (2022 redundants) done
Evaluating the initial hessian          ...  (Almloef) done
Evaluating the coordinates              ...  done
Calculating the B-matrix                .... done
Calculating the G-matrix                .... done
Diagonalizing the G-matrix              .... done
Small eigenvalue found = 1.056e-02
Small eigenvalue found = 1.066e-02
Small eigenvalue found = 1.178e-02
Small eigenvalue found = 1.213e-02
The first mode is                       ....  219
The number of degrees of freedom        ....  165

    -----------------------------------------------------------------
                    Redundant Internal Coordinates


    -----------------------------------------------------------------
         Definition                    Initial Value    Approx d2E/dq
    -----------------------------------------------------------------
      1. B(N   2,Mn  1)                  1.9390         0.753569   
      2. B(N   4,Mn  1)                  1.9441         0.739525   
      3. B(C   5,N   0)                  1.3287         0.700883   
      4. B(C   5,N   2)                  1.3933         0.552907   
      5. B(C   6,C   5)                  1.4494         0.502275   
      6. B(C   7,C   6)                  1.4026         0.596528   
      7. B(C   8,C   7)                  1.3919         0.620495   
      8. B(C   9,C   8)                  1.4034         0.594826   
      9. B(C  10,C   9)                  1.3924         0.619310   
     10. B(C  11,C  10)                  1.4009         0.600209   
     11. B(C  11,C   6)                  1.3953         0.612728   
     12. B(C  12,C  11)                  1.4419         0.516360   
     13. B(C  12,N   3)                  1.3307         0.695723   
     14. B(C  12,N   2)                  1.3822         0.575815   
     15. B(C  13,N   3)                  1.3285         0.701500   
     16. B(C  13,N   4)                  1.3818         0.576732   
     17. B(C  14,C  13)                  1.4453         0.509964   
     18. B(C  15,C  14)                  1.3981         0.606583   
     19. B(C  16,C  15)                  1.3967         0.609537   
     20. B(C  17,C  16)                  1.4005         0.601247   
     21. B(C  18,C  17)                  1.3914         0.621571   
     22. B(C  19,C  18)                  1.3986         0.605322   
     23. B(C  19,C  14)                  1.3982         0.606297   
     24. B(C  20,N   0)                  1.3190         0.726457   
     25. B(H  21,C   7)                  1.0070         0.488477   
     26. B(H  22,C   8)                  1.0458         0.423554   
     27. B(H  23,C   9)                  0.9947         0.511034   
     28. B(H  24,C  10)                  0.9897         0.520589   
     29. B(H  25,C  15)                  0.9762         0.547026   
     30. B(H  26,C  16)                  1.0207         0.464525   
     31. B(H  27,C  17)                  1.0094         0.484250   
     32. B(H  28,C  18)                  0.9503         0.601494   
     33. B(N  29,Mn  1)                  1.9390         0.753569   
     34. B(N  30,C  20)                  1.3901         0.559327   
     35. B(N  30,Mn  1)                  1.9441         0.739525   
     36. B(C  31,C  19)                  1.4535         0.494741   
     37. B(C  31,N   4)                  1.3901         0.559327   
     38. B(C  32,C  20)                  1.4535         0.494741   
     39. B(C  33,N  29)                  1.3933         0.552907   
     40. B(C  34,N  29)                  1.3822         0.575815   
     41. B(C  35,N  30)                  1.3818         0.576732   
     42. B(N  36,C  33)                  1.3287         0.700883   
     43. B(N  36,C  31)                  1.3190         0.726457   
     44. B(C  37,C  35)                  1.4453         0.509964   
     45. B(C  37,C  32)                  1.3982         0.606297   
     46. B(C  38,C  32)                  1.3986         0.605322   
     47. B(C  39,C  33)                  1.4494         0.502275   
     48. B(N  40,C  35)                  1.3285         0.701500   
     49. B(N  40,C  34)                  1.3307         0.695723   
     50. B(C  41,C  39)                  1.3953         0.612728   
     51. B(C  41,C  34)                  1.4419         0.516360   
     52. B(C  42,C  37)                  1.3981         0.606583   
     53. B(C  43,C  38)                  1.3914         0.621571   
     54. B(H  44,C  38)                  0.9503         0.601494   
     55. B(C  45,C  39)                  1.4026         0.596528   
     56. B(C  46,C  41)                  1.4009         0.600209   
     57. B(C  47,C  43)                  1.4005         0.601247   
     58. B(C  47,C  42)                  1.3967         0.609537   
     59. B(H  48,C  42)                  0.9762         0.547026   
     60. B(H  49,C  43)                  1.0094         0.484250   
     61. B(C  50,C  45)                  1.3919         0.620495   
     62. B(H  51,C  45)                  1.0070         0.488477   
     63. B(C  52,C  46)                  1.3924         0.619310   
     64. B(C  52,C  50)                  1.4034         0.594826   
     65. B(H  53,C  46)                  0.9897         0.520589   
     66. B(H  54,C  47)                  1.0207         0.464525   
     67. B(H  55,C  50)                  1.0458         0.423554   
     68. B(H  56,C  52)                  0.9947         0.511034   
     69. A(C   5,N   0,C  20)          121.5671         0.450705   
     70. A(N   4,Mn  1,N  29)           89.0109         0.583810   
     71. A(N   2,Mn  1,N   4)           90.9891         0.583810   
     72. A(N  29,Mn  1,N  30)           90.9891         0.583810   
     73. A(N   2,Mn  1,N  30)           89.0109         0.583810   
     74. A(C   5,N   2,C  12)          107.4220         0.414237   
     75. A(Mn  1,N   2,C   5)          127.0500         0.489174   
     76. A(Mn  1,N   2,C  12)          125.5183         0.492868   
     77. A(C  12,N   3,C  13)          122.5474         0.447255   
     78. A(Mn  1,N   4,C  31)          126.8984         0.488516   
     79. A(C  13,N   4,C  31)          107.8167         0.415205   
     80. A(Mn  1,N   4,C  13)          125.2787         0.491297   
     81. A(N   2,C   5,C   6)          109.0791         0.406949   
     82. A(N   0,C   5,C   6)          123.4228         0.424482   
     83. A(N   0,C   5,N   2)          127.4977         0.429033   
     84. A(C   5,C   6,C   7)          131.9066         0.415145   
     85. A(C   5,C   6,C  11)          106.7966         0.417128   
     86. A(C   7,C   6,C  11)          121.2818         0.430153   
     87. A(C   6,C   7,C   8)          116.7661         0.431127   
     88. A(C   8,C   7,H  21)          123.1975         0.371816   
     89. A(C   6,C   7,H  21)          120.0336         0.369306   
     90. A(C   9,C   8,H  22)          118.5801         0.360227   
     91. A(C   7,C   8,C   9)          121.8408         0.430906   
     92. A(C   7,C   8,H  22)          119.5791         0.362833   
     93. A(C   8,C   9,H  23)          119.4430         0.372002   
     94. A(C  10,C   9,H  23)          118.9111         0.374597   
     95. A(C   8,C   9,C  10)          121.5036         0.430758   
     96. A(C   9,C  10,C  11)          116.6345         0.431455   
     97. A(C  11,C  10,H  24)          119.0871         0.373771   
     98. A(C   9,C  10,H  24)          124.1640         0.375797   
     99. A(C   6,C  11,C  10)          121.9676         0.430628   
    100. A(C  10,C  11,C  12)          130.9593         0.417650   
    101. A(C   6,C  11,C  12)          107.0597         0.419189   
    102. A(N   3,C  12,C  11)          122.6858         0.426024   
    103. A(N   2,C  12,C  11)          109.6190         0.411899   
    104. A(N   2,C  12,N   3)          127.6916         0.431598   
    105. A(N   4,C  13,C  14)          109.5839         0.411105   
    106. A(N   3,C  13,C  14)          122.5124         0.425704   
    107. A(N   3,C  13,N   4)          127.8825         0.432364   
    108. A(C  15,C  14,C  19)          121.6988         0.430629   
    109. A(C  13,C  14,C  19)          106.7767         0.417473   
    110. A(C  13,C  14,C  15)          131.5191         0.417508   
    111. A(C  14,C  15,C  16)          116.8764         0.431041   
    112. A(C  16,C  15,H  25)          119.6569         0.377989   
    113. A(C  14,C  15,H  25)          123.4607         0.377671   
    114. A(C  15,C  16,C  17)          121.4568         0.430358   
    115. A(C  17,C  16,H  26)          118.1053         0.366629   
    116. A(C  15,C  16,H  26)          120.4129         0.367491   
    117. A(C  16,C  17,C  18)          121.5278         0.431872   
    118. A(C  18,C  17,H  27)          118.0274         0.371371   
    119. A(C  16,C  17,H  27)          120.4425         0.369254   
    120. A(C  19,C  18,H  28)          122.4232         0.383801   
    121. A(C  17,C  18,H  28)          120.3188         0.385574   
    122. A(C  17,C  18,C  19)          117.2575         0.432396   
    123. A(C  18,C  19,C  31)          131.8232         0.415109   
    124. A(C  14,C  19,C  31)          106.9827         0.415228   
    125. A(C  14,C  19,C  18)          121.1818         0.430468   
    126. A(N  30,C  20,C  32)          108.8044         0.406692   
    127. A(N   0,C  20,C  32)          123.3237         0.426059   
    128. A(N   0,C  20,N  30)          127.8559         0.432699   
    129. A(Mn  1,N  29,C  33)          127.0500         0.489174   
    130. A(C  33,N  29,C  34)          107.4220         0.414237   
    131. A(Mn  1,N  29,C  34)          125.5183         0.492868   
    132. A(Mn  1,N  30,C  20)          126.8984         0.488516   
    133. A(C  20,N  30,C  35)          107.8167         0.415205   
    134. A(Mn  1,N  30,C  35)          125.2787         0.491297   
    135. A(N   4,C  31,C  19)          108.8044         0.406692   
    136. A(C  19,C  31,N  36)          123.3237         0.426059   
    137. A(N   4,C  31,N  36)          127.8559         0.432699   
    138. A(C  37,C  32,C  38)          121.1818         0.430468   
    139. A(C  20,C  32,C  38)          131.8232         0.415109   
    140. A(C  20,C  32,C  37)          106.9827         0.415228   
    141. A(N  36,C  33,C  39)          123.4228         0.424482   
    142. A(N  29,C  33,C  39)          109.0791         0.406949   
    143. A(N  29,C  33,N  36)          127.4977         0.429033   
    144. A(N  40,C  34,C  41)          122.6858         0.426024   
    145. A(N  29,C  34,C  41)          109.6190         0.411899   
    146. A(N  29,C  34,N  40)          127.6916         0.431598   
    147. A(C  37,C  35,N  40)          122.5124         0.425704   
    148. A(N  30,C  35,N  40)          127.8825         0.432364   
    149. A(N  30,C  35,C  37)          109.5839         0.411105   
    150. A(C  31,N  36,C  33)          121.5671         0.450705   
    151. A(C  35,C  37,C  42)          131.5191         0.417508   
    152. A(C  32,C  37,C  42)          121.6988         0.430629   
    153. A(C  32,C  37,C  35)          106.7767         0.417473   
    154. A(C  43,C  38,H  44)          120.3188         0.385574   
    155. A(C  32,C  38,H  44)          122.4232         0.383801   
    156. A(C  32,C  38,C  43)          117.2575         0.432396   
    157. A(C  41,C  39,C  45)          121.2818         0.430153   
    158. A(C  33,C  39,C  45)          131.9066         0.415145   
    159. A(C  33,C  39,C  41)          106.7966         0.417128   
    160. A(C  34,N  40,C  35)          122.5474         0.447255   
    161. A(C  39,C  41,C  46)          121.9676         0.430628   
    162. A(C  34,C  41,C  46)          130.9593         0.417650   
    163. A(C  34,C  41,C  39)          107.0597         0.419189   
    164. A(C  47,C  42,H  48)          119.6569         0.377989   
    165. A(C  37,C  42,H  48)          123.4607         0.377671   
    166. A(C  37,C  42,C  47)          116.8764         0.431041   
    167. A(C  47,C  43,H  49)          120.4425         0.369254   
    168. A(C  38,C  43,H  49)          118.0274         0.371371   
    169. A(C  38,C  43,C  47)          121.5278         0.431872   
    170. A(C  50,C  45,H  51)          123.1975         0.371816   
    171. A(C  39,C  45,H  51)          120.0336         0.369306   
    172. A(C  39,C  45,C  50)          116.7661         0.431127   
    173. A(C  52,C  46,H  53)          124.1640         0.375797   
    174. A(C  41,C  46,H  53)          119.0871         0.373771   
    175. A(C  41,C  46,C  52)          116.6345         0.431455   
    176. A(C  43,C  47,H  54)          118.1053         0.366629   
    177. A(C  42,C  47,H  54)          120.4129         0.367491   
    178. A(C  42,C  47,C  43)          121.4568         0.430358   
    179. A(C  52,C  50,H  55)          118.5801         0.360227   
    180. A(C  45,C  50,H  55)          119.5791         0.362833   
    181. A(C  45,C  50,C  52)          121.8408         0.430906   
    182. A(C  50,C  52,H  56)          119.4430         0.372002   
    183. A(C  46,C  52,H  56)          118.9111         0.374597   
    184. A(C  46,C  52,C  50)          121.5036         0.430758   
    185. D(C  12,N   2,Mn  1,N   4)     -0.1863         0.004099   
    186. D(C  12,N   2,Mn  1,N  30)    179.8137         0.004099   
    187. D(C   5,N   2,Mn  1,N   4)    178.5371         0.004099   
    188. D(C   5,N   2,Mn  1,N  30)     -1.4629         0.004099   
    189. D(C  31,N   4,Mn  1,N  29)      1.5384         0.004002   
    190. D(C  13,N   4,Mn  1,N   2)      0.5172         0.004002   
    191. D(C  13,N   4,Mn  1,N  29)   -179.4828         0.004002   
    192. D(C  31,N   4,Mn  1,N   2)   -178.4616         0.004002   
    193. D(C   6,C   5,N   2,Mn  1)   -177.3868         0.024380   
    194. D(C   6,C   5,N   2,C  12)      1.5241         0.024380   
    195. D(N   2,C   5,N   0,C  20)     -0.6373         0.036796   
    196. D(C   6,C   5,N   0,C  20)    179.6052         0.036796   
    197. D(N   0,C   5,N   2,C  12)   -178.2617         0.024380   
    198. D(N   0,C   5,N   2,Mn  1)      2.8273         0.024380   
    199. D(C  11,C   6,C   5,N   0)    178.8413         0.017185   
    200. D(C   7,C   6,C   5,N   0)     -2.5944         0.017185   
    201. D(C   7,C   6,C   5,N   2)    177.6091         0.017185   
    202. D(C  11,C   6,C   5,N   2)     -0.9551         0.017185   
    203. D(C   8,C   7,C   6,C   5)   -178.2921         0.024516   
    204. D(H  21,C   7,C   6,C   5)      1.1144         0.024516   
    205. D(C   8,C   7,C   6,C  11)      0.0996         0.024516   
    206. D(H  21,C   7,C   6,C  11)    179.5061         0.024516   
    207. D(H  22,C   8,C   7,C   6)   -179.8238         0.026644   
    208. D(H  22,C   8,C   7,H  21)      0.7902         0.026644   
    209. D(C   9,C   8,C   7,C   6)      0.2428         0.026644   
    210. D(C   9,C   8,C   7,H  21)   -179.1432         0.026644   
    211. D(H  23,C   9,C   8,H  22)      3.6718         0.024369   
    212. D(C  10,C   9,C   8,H  22)    179.2872         0.024369   
    213. D(C  10,C   9,C   8,C   7)     -0.7788         0.024369   
    214. D(H  23,C   9,C   8,C   7)   -176.3941         0.024369   
    215. D(C  11,C  10,C   9,C   8)      0.9111         0.026537   
    216. D(H  24,C  10,C   9,H  23)     -7.3854         0.026537   
    217. D(H  24,C  10,C   9,C   8)    176.9765         0.026537   
    218. D(C  11,C  10,C   9,H  23)    176.5492         0.026537   
    219. D(C  12,C  11,C  10,H  24)      1.6355         0.024836   
    220. D(C   6,C  11,C  10,H  24)   -176.8467         0.024836   
    221. D(C  12,C  11,C  10,C   9)    177.9104         0.024836   
    222. D(C  12,C  11,C   6,C   7)   -178.7257         0.025943   
    223. D(C  12,C  11,C   6,C   5)      0.0241         0.025943   
    224. D(C   6,C  11,C  10,C   9)     -0.5718         0.024836   
    225. D(C  10,C  11,C   6,C   7)      0.0754         0.025943   
    226. D(C  10,C  11,C   6,C   5)    178.8251         0.025943   
    227. D(N   3,C  12,C  11,C  10)      1.6340         0.018178   
    228. D(N   3,C  12,C  11,C   6)   -179.7129         0.018178   
    229. D(N   2,C  12,C  11,C  10)   -177.7279         0.018178   
    230. D(N   2,C  12,C  11,C   6)      0.9252         0.018178   
    231. D(C  11,C  12,N   3,C  13)   -175.3827         0.036205   
    232. D(N   2,C  12,N   3,C  13)      3.8577         0.036205   
    233. D(C  11,C  12,N   2,C   5)     -1.5156         0.026569   
    234. D(C  11,C  12,N   2,Mn  1)    177.4165         0.026569   
    235. D(N   3,C  12,N   2,C   5)    179.1631         0.026569   
    236. D(N   3,C  12,N   2,Mn  1)     -1.9048         0.026569   
    237. D(C  14,C  13,N   4,C  31)      1.9562         0.026659   
    238. D(C  14,C  13,N   4,Mn  1)   -177.1861         0.026659   
    239. D(N   3,C  13,N   4,C  31)   -179.7025         0.026659   
    240. D(N   3,C  13,N   4,Mn  1)      1.1552         0.026659   
    241. D(C  14,C  13,N   3,C  12)    174.6880         0.036867   
    242. D(N   4,C  13,N   3,C  12)     -3.4587         0.036867   
    243. D(C  19,C  14,C  13,N   4)     -1.4336         0.017723   
    244. D(C  19,C  14,C  13,N   3)   -179.8811         0.017723   
    245. D(C  15,C  14,C  13,N   4)    177.7078         0.017723   
    246. D(C  15,C  14,C  13,N   3)     -0.7397         0.017723   
    247. D(C  16,C  15,C  14,C  13)   -178.7984         0.025396   
    248. D(H  25,C  15,C  14,C  19)   -178.8710         0.025396   
    249. D(H  25,C  15,C  14,C  13)      2.0952         0.025396   
    250. D(C  16,C  15,C  14,C  19)      0.2354         0.025396   
    251. D(H  26,C  16,C  15,H  25)      0.6397         0.025658   
    252. D(H  26,C  16,C  15,C  14)   -178.5024         0.025658   
    253. D(C  17,C  16,C  15,H  25)    178.7822         0.025658   
    254. D(C  17,C  16,C  15,C  14)     -0.3599         0.025658   
    255. D(H  27,C  17,C  16,H  26)     -2.0890         0.024926   
    256. D(H  27,C  17,C  16,C  15)    179.7270         0.024926   
    257. D(C  18,C  17,C  16,H  26)    178.4651         0.024926   
    258. D(C  18,C  17,C  16,C  15)      0.2812         0.024926   
    259. D(H  28,C  18,C  17,H  27)      0.7284         0.026743   
    260. D(H  28,C  18,C  17,C  16)   -179.8129         0.026743   
    261. D(C  19,C  18,C  17,H  27)   -179.5163         0.026743   
    262. D(C  19,C  18,C  17,C  16)     -0.0576         0.026743   
    263. D(C  31,C  19,C  18,H  28)     -1.7709         0.025284   
    264. D(C  31,C  19,C  18,C  17)    178.4793         0.025284   
    265. D(C  14,C  19,C  18,H  28)    179.6824         0.025284   
    266. D(C  14,C  19,C  18,C  17)     -0.0674         0.025284   
    267. D(C  31,C  19,C  14,C  15)   -178.8931         0.025370   
    268. D(C  31,C  19,C  14,C  13)      0.3514         0.025370   
    269. D(C  18,C  19,C  14,C  15)     -0.0254         0.025370   
    270. D(C  18,C  19,C  14,C  13)    179.2190         0.025370   
    271. D(C  32,C  20,N   0,C   5)    178.6813         0.039813   
    272. D(N  30,C  20,N   0,C   5)     -2.9368         0.039813   
    273. D(C  34,N  29,N   2,C  12)    180.0000         0.001500   
    274. D(C  34,N  29,N   2,C   5)     -1.2766         0.001500   
    275. D(C  33,N  29,N   2,C  12)      1.2766         0.001500   
    276. D(C  33,N  29,N   2,C   5)    180.0000         0.001500   
    277. D(C  34,N  29,Mn  1,N  30)      0.1863         0.004099   
    278. D(C  34,N  29,Mn  1,N   4)   -179.8137         0.004099   
    279. D(C  33,N  29,Mn  1,N  30)   -178.5371         0.004099   
    280. D(C  33,N  29,Mn  1,N   4)      1.4629         0.004099   
    281. D(C  35,N  30,C  20,C  32)      1.7201         0.024981   
    282. D(Mn  1,N  30,C  20,C  32)   -177.4043         0.024981   
    283. D(Mn  1,N  30,C  20,N   0)      4.0239         0.024981   
    284. D(C  35,N  30,N   4,C  31)      1.0211         0.001500   
    285. D(C  35,N  30,N   4,C  13)    180.0000         0.001500   
    286. D(C  20,N  30,N   4,C  31)    180.0000         0.001500   
    287. D(C  20,N  30,N   4,C  13)     -1.0211         0.001500   
    288. D(C  35,N  30,Mn  1,N  29)     -0.5172         0.004002   
    289. D(C  35,N  30,Mn  1,N   2)    179.4828         0.004002   
    290. D(C  35,N  30,C  20,N   0)   -176.8517         0.024981   
    291. D(C  20,N  30,Mn  1,N  29)    178.4616         0.004002   
    292. D(C  20,N  30,Mn  1,N   2)     -1.5384         0.004002   
    293. D(N  36,C  31,C  19,C  18)      3.4795         0.016669   
    294. D(N  36,C  31,C  19,C  14)   -177.8205         0.016669   
    295. D(N   4,C  31,C  19,C  18)   -177.8701         0.016669   
    296. D(N   4,C  31,C  19,C  14)      0.8299         0.016669   
    297. D(N  36,C  31,N   4,C  13)    176.8517         0.024981   
    298. D(N  36,C  31,N   4,Mn  1)     -4.0239         0.024981   
    299. D(C  19,C  31,N   4,C  13)     -1.7201         0.024981   
    300. D(C  19,C  31,N   4,Mn  1)    177.4043         0.024981   
    301. D(C  38,C  32,C  20,N  30)    177.8701         0.016669   
    302. D(C  38,C  32,C  20,N   0)     -3.4795         0.016669   
    303. D(C  37,C  32,C  20,N  30)     -0.8299         0.016669   
    304. D(C  37,C  32,C  20,N   0)    177.8205         0.016669   
    305. D(C  39,C  33,N  29,C  34)     -1.5241         0.024380   
    306. D(C  39,C  33,N  29,Mn  1)    177.3868         0.024380   
    307. D(N  36,C  33,N  29,C  34)    178.2617         0.024380   
    308. D(N  36,C  33,N  29,Mn  1)     -2.8273         0.024380   
    309. D(C  41,C  34,N  29,Mn  1)   -177.4165         0.026569   
    310. D(N  40,C  34,N  29,C  33)   -179.1631         0.026569   
    311. D(N  40,C  34,N  29,Mn  1)      1.9048         0.026569   
    312. D(C  41,C  34,N  29,C  33)      1.5156         0.026569   
    313. D(N  40,C  35,N  30,C  20)    179.7025         0.026659   
    314. D(N  40,C  35,N  30,Mn  1)     -1.1552         0.026659   
    315. D(C  37,C  35,N  30,C  20)     -1.9562         0.026659   
    316. D(C  37,C  35,N  30,Mn  1)    177.1861         0.026659   
    317. D(C  31,N  36,C  33,C  39)   -179.6052         0.036796   
    318. D(C  31,N  36,C  33,N  29)      0.6373         0.036796   
    319. D(C  33,N  36,C  31,C  19)   -178.6813         0.039813   
    320. D(C  33,N  36,C  31,N   4)      2.9368         0.039813   
    321. D(C  42,C  37,C  35,N  40)      0.7397         0.017723   
    322. D(C  42,C  37,C  35,N  30)   -177.7078         0.017723   
    323. D(C  32,C  37,C  35,N  40)    179.8811         0.017723   
    324. D(C  32,C  37,C  35,N  30)      1.4336         0.017723   
    325. D(C  42,C  37,C  32,C  38)      0.0254         0.025370   
    326. D(C  42,C  37,C  32,C  20)    178.8931         0.025370   
    327. D(C  35,C  37,C  32,C  38)   -179.2190         0.025370   
    328. D(C  35,C  37,C  32,C  20)     -0.3514         0.025370   
    329. D(H  44,C  38,C  32,C  37)   -179.6824         0.025284   
    330. D(H  44,C  38,C  32,C  20)      1.7709         0.025284   
    331. D(C  43,C  38,C  32,C  37)      0.0674         0.025284   
    332. D(C  43,C  38,C  32,C  20)   -178.4793         0.025284   
    333. D(C  45,C  39,C  33,N  36)      2.5944         0.017185   
    334. D(C  45,C  39,C  33,N  29)   -177.6091         0.017185   
    335. D(C  41,C  39,C  33,N  36)   -178.8413         0.017185   
    336. D(C  41,C  39,C  33,N  29)      0.9551         0.017185   
    337. D(C  34,N  40,C  35,C  37)   -174.6880         0.036867   
    338. D(C  34,N  40,C  35,N  30)      3.4587         0.036867   
    339. D(C  35,N  40,C  34,C  41)    175.3827         0.036205   
    340. D(C  35,N  40,C  34,N  29)     -3.8577         0.036205   
    341. D(C  46,C  41,C  39,C  45)     -0.0754         0.025943   
    342. D(C  46,C  41,C  39,C  33)   -178.8251         0.025943   
    343. D(C  34,C  41,C  39,C  45)    178.7257         0.025943   
    344. D(C  34,C  41,C  39,C  33)     -0.0241         0.025943   
    345. D(C  46,C  41,C  34,N  40)     -1.6340         0.018178   
    346. D(C  46,C  41,C  34,N  29)    177.7279         0.018178   
    347. D(C  39,C  41,C  34,N  40)    179.7129         0.018178   
    348. D(C  39,C  41,C  34,N  29)     -0.9252         0.018178   
    349. D(H  48,C  42,C  37,C  35)     -2.0952         0.025396   
    350. D(H  48,C  42,C  37,C  32)    178.8710         0.025396   
    351. D(C  47,C  42,C  37,C  35)    178.7984         0.025396   
    352. D(C  47,C  42,C  37,C  32)     -0.2354         0.025396   
    353. D(H  49,C  43,C  38,H  44)     -0.7284         0.026743   
    354. D(H  49,C  43,C  38,C  32)    179.5163         0.026743   
    355. D(C  47,C  43,C  38,H  44)    179.8129         0.026743   
    356. D(C  47,C  43,C  38,C  32)      0.0576         0.026743   
    357. D(H  51,C  45,C  39,C  41)   -179.5061         0.024516   
    358. D(H  51,C  45,C  39,C  33)     -1.1144         0.024516   
    359. D(C  50,C  45,C  39,C  41)     -0.0996         0.024516   
    360. D(C  50,C  45,C  39,C  33)    178.2921         0.024516   
    361. D(H  53,C  46,C  41,C  39)    176.8467         0.024836   
    362. D(H  53,C  46,C  41,C  34)     -1.6355         0.024836   
    363. D(C  52,C  46,C  41,C  39)      0.5718         0.024836   
    364. D(C  52,C  46,C  41,C  34)   -177.9104         0.024836   
    365. D(H  54,C  47,C  43,H  49)      2.0890         0.024926   
    366. D(H  54,C  47,C  43,C  38)   -178.4651         0.024926   
    367. D(C  42,C  47,C  43,H  49)   -179.7270         0.024926   
    368. D(C  42,C  47,C  43,C  38)     -0.2812         0.024926   
    369. D(H  54,C  47,C  42,H  48)     -0.6397         0.025658   
    370. D(H  54,C  47,C  42,C  37)    178.5024         0.025658   
    371. D(C  43,C  47,C  42,H  48)   -178.7822         0.025658   
    372. D(C  43,C  47,C  42,C  37)      0.3599         0.025658   
    373. D(H  55,C  50,C  45,H  51)     -0.7902         0.026644   
    374. D(H  55,C  50,C  45,C  39)    179.8238         0.026644   
    375. D(C  52,C  50,C  45,H  51)    179.1432         0.026644   
    376. D(C  52,C  50,C  45,C  39)     -0.2428         0.026644   
    377. D(H  56,C  52,C  50,H  55)     -3.6718         0.024369   
    378. D(H  56,C  52,C  50,C  45)    176.3941         0.024369   
    379. D(C  46,C  52,C  50,H  55)   -179.2872         0.024369   
    380. D(C  46,C  52,C  50,C  45)      0.7788         0.024369   
    381. D(H  56,C  52,C  46,H  53)      7.3854         0.026537   
    382. D(H  56,C  52,C  46,C  41)   -176.5492         0.026537   
    383. D(C  50,C  52,C  46,H  53)   -176.9765         0.026537   
    384. D(C  50,C  52,C  46,C  41)     -0.9111         0.026537   
    -----------------------------------------------------------------

Number of atoms                         .... 57
Number of degrees of freedom            .... 384


         *************************************************************
         *                GEOMETRY OPTIMIZATION CYCLE   1            *
         *************************************************************
---------------------------------
CARTESIAN COORDINATES (ANGSTROEM)
---------------------------------
  N      2.101500    0.140800    2.677800
  Mn     0.000000    0.000000    0.000000
  N      0.108600    1.067700    1.614900
  N     -1.819600    2.518900    1.288300
  N     -1.603100    0.947300   -0.558800
  C      1.055300    0.958600    2.631300
  C      0.734800    1.905400    3.680900
  C      1.332700    2.165200    4.922800
  C      0.733500    3.140000    5.715300
  C     -0.416200    3.828800    5.299100
  C     -1.005400    3.580400    4.062200
  C     -0.404200    2.596600    3.266400
  C     -0.771100    2.071300    1.974700
  C     -2.208300    1.973700    0.140900
  C     -3.410500    2.386100   -0.547200
  C     -4.380200    3.341000   -0.227200
  C     -5.450700    3.475600   -1.114200
  C     -5.542100    2.694800   -2.273200
  C     -4.574300    1.746600   -2.589900
  C     -3.502400    1.604400   -1.702800
  C      2.354600   -0.712600    1.704500
  H      2.150100    1.649900    5.206300
  H      1.144600    3.370900    6.648800
  H     -0.783800    4.556100    5.869500
  H     -1.839000    4.010900    3.747200
  H     -4.333600    3.911300    0.563700
  H     -6.177400    4.172100   -0.945100
  H     -6.324700    2.801900   -2.901600
  H     -4.652100    1.227900   -3.382400
  N     -0.108600   -1.067700   -1.614900
  N      1.603100   -0.947300    0.558800
  C     -2.354600    0.712600   -1.704500
  C      3.502400   -1.604400    1.702800
  C     -1.055300   -0.958600   -2.631300
  C      0.771100   -2.071300   -1.974700
  C      2.208300   -1.973700   -0.140900
  N     -2.101500   -0.140800   -2.677800
  C      3.410500   -2.386100    0.547200
  C      4.574300   -1.746600    2.589900
  C     -0.734800   -1.905400   -3.680900
  N      1.819600   -2.518900   -1.288300
  C      0.404200   -2.596600   -3.266400
  C      4.380200   -3.341000    0.227200
  C      5.542100   -2.694800    2.273200
  H      4.652100   -1.227900    3.382400
  C     -1.332700   -2.165200   -4.922800
  C      1.005400   -3.580400   -4.062200
  C      5.450700   -3.475600    1.114200
  H      4.333600   -3.911300   -0.563700
  H      6.324700   -2.801900    2.901600
  C     -0.733500   -3.140000   -5.715300
  H     -2.150100   -1.649900   -5.206300
  C      0.416200   -3.828800   -5.299100
  H      1.839000   -4.010900   -3.747200
  H      6.177400   -4.172100    0.945100
  H     -1.144600   -3.370900   -6.648800
  H      0.783800   -4.556100   -5.869500

----------------------------
CARTESIAN COORDINATES (A.U.)
----------------------------
  NO LB      ZA    FRAG     MASS         X           Y           Z
   0 N     7.0000    0    14.007    3.971259    0.266073    5.060309
   1 Mn   25.0000    0    54.940    0.000000    0.000000    0.000000
   2 N     7.0000    0    14.007    0.205224    2.017661    3.051719
   3 N     7.0000    0    14.007   -3.438546    4.760031    2.434534
   4 N     7.0000    0    14.007   -3.029420    1.790138   -1.055979
   5 C     6.0000    0    12.011    1.994228    1.811491    4.972436
   6 C     6.0000    0    12.011    1.388571    3.600684    6.955893
   7 C     6.0000    0    12.011    2.518438    4.091635    9.302744
   8 C     6.0000    0    12.011    1.386114    5.933740   10.800352
   9 C     6.0000    0    12.011   -0.786504    7.235383   10.013848
  10 C     6.0000    0    12.011   -1.899931    6.765975    7.676446
  11 C     6.0000    0    12.011   -0.763827    4.906863    6.172601
  12 C     6.0000    0    12.011   -1.457168    3.914190    3.731642
  13 C     6.0000    0    12.011   -4.173082    3.729752    0.266262
  14 C     6.0000    0    12.011   -6.444911    4.509076   -1.034058
  15 C     6.0000    0    12.011   -8.277378    6.313575   -0.429346
  16 C     6.0000    0    12.011  -10.300330    6.567932   -2.105533
  17 C     6.0000    0    12.011  -10.473051    5.092434   -4.295725
  18 C     6.0000    0    12.011   -8.644174    3.300596   -4.894202
  19 C     6.0000    0    12.011   -6.618577    3.031877   -3.217826
  20 C     6.0000    0    12.011    4.449549   -1.346619    3.221038
  21 H     1.0000    0     1.008    4.063100    3.117859    9.838481
  22 H     1.0000    0     1.008    2.162981    6.370078   12.564411
  23 H     1.0000    0     1.008   -1.481167    8.609781   11.091748
  24 H     1.0000    0     1.008   -3.475206    7.579503    7.081182
  25 H     1.0000    0     1.008   -8.189317    7.391286    1.065239
  26 H     1.0000    0     1.008  -11.673594    7.884126   -1.785980
  27 H     1.0000    0     1.008  -11.951951    5.294824   -5.483229
  28 H     1.0000    0     1.008   -8.791195    2.320395   -6.391810
  29 N     7.0000    0    14.007   -0.205224   -2.017661   -3.051719
  30 N     7.0000    0    14.007    3.029420   -1.790138    1.055979
  31 C     6.0000    0    12.011   -4.449549    1.346619   -3.221038
  32 C     6.0000    0    12.011    6.618577   -3.031877    3.217826
  33 C     6.0000    0    12.011   -1.994228   -1.811491   -4.972436
  34 C     6.0000    0    12.011    1.457168   -3.914190   -3.731642
  35 C     6.0000    0    12.011    4.173082   -3.729752   -0.266262
  36 N     7.0000    0    14.007   -3.971259   -0.266073   -5.060309
  37 C     6.0000    0    12.011    6.444911   -4.509076    1.034058
  38 C     6.0000    0    12.011    8.644174   -3.300596    4.894202
  39 C     6.0000    0    12.011   -1.388571   -3.600684   -6.955893
  40 N     7.0000    0    14.007    3.438546   -4.760031   -2.434534
  41 C     6.0000    0    12.011    0.763827   -4.906863   -6.172601
  42 C     6.0000    0    12.011    8.277378   -6.313575    0.429346
  43 C     6.0000    0    12.011   10.473051   -5.092434    4.295725
  44 H     1.0000    0     1.008    8.791195   -2.320395    6.391810
  45 C     6.0000    0    12.011   -2.518438   -4.091635   -9.302744
  46 C     6.0000    0    12.011    1.899931   -6.765975   -7.676446
  47 C     6.0000    0    12.011   10.300330   -6.567932    2.105533
  48 H     1.0000    0     1.008    8.189317   -7.391286   -1.065239
  49 H     1.0000    0     1.008   11.951951   -5.294824    5.483229
  50 C     6.0000    0    12.011   -1.386114   -5.933740  -10.800352
  51 H     1.0000    0     1.008   -4.063100   -3.117859   -9.838481
  52 C     6.0000    0    12.011    0.786504   -7.235383  -10.013848
  53 H     1.0000    0     1.008    3.475206   -7.579503   -7.081182
  54 H     1.0000    0     1.008   11.673594   -7.884126    1.785980
  55 H     1.0000    0     1.008   -2.162981   -6.370078  -12.564411
  56 H     1.0000    0     1.008    1.481167   -8.609781  -11.091748

--------------------------------
INTERNAL COORDINATES (ANGSTROEM)
--------------------------------
 N      0   0   0     0.000000000000     0.00000000     0.00000000
 Mn     1   0   0     3.406866555943     0.00000000     0.00000000
 N      2   1   0     1.938989236690    44.60769043     0.00000000
 N      3   2   1     2.435283195031    99.90948747   179.19529829
 N      2   1   3     1.944110166632   135.59635856   359.68913688
 C      1   2   3     1.328718755042    60.80676366     1.19388074
 C      6   1   2     1.449417348454   123.42282749   178.77177485
 C      7   6   1     1.402603315268   131.90661445   357.40555446
 C      8   7   6     1.391880716872   116.76608894   181.70791863
 C      9   8   7     1.403380906953   121.84076063     0.24279751
 C     10   9   8     1.392401095231   121.50360380   359.22124548
 C      7   6   1     1.395309531968   106.79658626   178.84130876
 C      4   3   2     1.330730239380    26.68819520   178.42627827
 C      4   3   2     1.328479390130    95.90856582     1.69474754
 C     14   4   3     1.445282052058   122.51240659   176.42881815
 C     15  14   4     1.398052967523   131.51911164   359.26028831
 C     16  15  14     1.396730614686   116.87639881   181.20157033
 C     17  16  15     1.400458353540   121.45675453   359.64007825
 C     18  17  16     1.391408987322   121.52782793     0.28120592
 C     15  14   4     1.398181626256   106.77665087   180.11888756
 C      1   2   3     1.318963251952    60.76553757   182.00761981
 H      8   7   6     1.007000049652   120.03356109     1.11442688
 H      9   8   7     1.045820381328   119.57912905   180.17618301
 H     10   9   8     0.994711621527   119.44296615   183.60585880
 H     11  10   9     0.989668737508   124.16404481   176.97653185
 H     16  15  14     0.976184644419   123.46069528     2.09520384
 H     17  16  15     1.020686019303   120.41285999   181.49762090
 H     18  17  16     1.009366003985   120.44253159   179.72703086
 H     19  18  17     0.950346663066   120.31876276   180.18713767
 N      2   1   3     1.938989236690   135.39230957   180.00000000
 N     21   1   2     1.390131227618   127.85591961   357.89693447
 C      5   2   1     1.390131227618   126.89837915   181.75671952
 C     21   1   2     1.453531895075   123.32370945   179.51504576
 C     30   2   1     1.393274079282   127.04995437   181.24537838
 C     30   2   1     1.382223241738   125.51833223   359.96873204
 C     31  21   1     1.381790175823   107.81672131   183.14831203
 N     32   5   2     1.318963251952   127.85591961   355.97609242
 C     33  21   1     1.398181626256   106.98273334   177.82050293
 C     33  21   1     1.398619626632   131.82319331   356.52050637
 C     34  30   2     1.449417348454   109.07912574   177.38681929
 N     36  31  21     1.328479390130   127.88247543   179.70253765
 C     40  34  30     1.395309531968   106.79658626     0.95512771
 C     38  33  21     1.398052967523   121.69881708   178.89305993
 C     39  33  21     1.391408987322   117.25754705   181.52065693
 H     39  33  21     0.950346663066   122.42321500     1.77093840
 C     40  34  30     1.402603315268   131.90661445   182.39088201
 C     42  40  34     1.400928806185   121.96756939   181.17487345
 C     43  38  33     1.396730614686   116.87639881   359.76462835
 H     43  38  33     0.976184644419   123.46069528   178.87099484
 H     44  39  33     1.009366003985   118.02740931   179.51634903
 C     46  40  34     1.391880716872   116.76608894   178.29208137
 H     46  40  34     1.007000049652   120.03356109   358.88557312
 C     47  42  40     1.392401095231   116.63451317     0.57180601
 H     47  42  40     0.989668737508   119.08708373   176.84669851
 H     48  43  38     1.020686019303   120.41285999   178.50237910
 H     51  46  40     1.045820381328   119.57912905   179.82381699
 H     53  47  42     0.994711621527   118.91110068   183.45082989

---------------------------
INTERNAL COORDINATES (A.U.)
---------------------------
 N      0   0   0     0.000000000000     0.00000000     0.00000000
 Mn     1   0   0     6.438044765547     0.00000000     0.00000000
 N      2   1   0     3.664158633965    44.60769043     0.00000000
 N      3   2   1     4.602018297149    99.90948747   179.19529829
 N      2   1   3     3.673835789106   135.59635856   359.68913688
 C      1   2   3     2.510914556034    60.80676366     1.19388074
 C      6   1   2     2.739001842333   123.42282749   178.77177485
 C      7   6   1     2.650536140386   131.90661445   357.40555446
 C      8   7   6     2.630273365974   116.76608894   181.70791863
 C      9   8   7     2.652005575715   121.84076063     0.24279751
 C     10   9   8     2.631256738558   121.50360380   359.22124548
 C      7   6   1     2.636752887469   106.79658626   178.84130876
 C      4   3   2     2.514715710555    26.68819520   178.42627827
 C      4   3   2     2.510462221904    95.90856582     1.69474754
 C     14   4   3     2.731187264661   122.51240659   176.42881815
 C     15  14   4     2.641937229334   131.51911164   359.26028831
 C     16  15  14     2.639438344619   116.87639881   181.20157033
 C     17  16  15     2.646482750153   121.45675453   359.64007825
 C     18  17  16     2.629381926315   121.52782793     0.28120592
 C     15  14   4     2.642180359105   106.77665087   180.11888756
 C      1   2   3     2.492479326896    60.76553757   182.00761981
 H      8   7   6     1.902954310688   120.03356109     1.11442688
 H      9   8   7     1.976314105982   119.57912905   180.17618301
 H     10   9   8     1.879732546914   119.44296615   183.60585880
 H     11  10   9     1.870202877193   124.16404481   176.97653185
 H     16  15  14     1.844721634092   123.46069528     2.09520384
 H     17  16  15     1.928817045204   120.41285999   181.49762090
 H     18  17  16     1.907425316422   120.44253159   179.72703086
 H     19  18  17     1.795894925480   120.31876276   180.18713767
 N      2   1   3     3.664158633965   135.39230957   180.00000000
 N     21   1   2     2.626967310411   127.85591961   357.89693447
 C      5   2   1     2.626967310411   126.89837915   181.75671952
 C     21   1   2     2.746777208611   123.32370945   179.51504576
 C     30   2   1     2.632906439335   127.04995437   181.24537838
 C     30   2   1     2.612023382825   125.51833223   359.96873204
 C     31  21   1     2.611205006848   107.81672131   183.14831203
 N     32   5   2     2.492479326896   127.85591961   355.97609242
 C     33  21   1     2.642180359105   106.98273334   177.82050293
 C     33  21   1     2.643008059862   131.82319331   356.52050637
 C     34  30   2     2.739001842333   109.07912574   177.38681929
 N     36  31  21     2.510462221904   127.88247543   179.70253765
 C     40  34  30     2.636752887469   106.79658626     0.95512771
 C     38  33  21     2.641937229334   121.69881708   178.89305993
 C     39  33  21     2.629381926315   117.25754705   181.52065693
 H     39  33  21     1.795894925480   122.42321500     1.77093840
 C     40  34  30     2.650536140386   131.90661445   182.39088201
 C     42  40  34     2.647371776812   121.96756939   181.17487345
 C     43  38  33     2.639438344619   116.87639881   359.76462835
 H     43  38  33     1.844721634092   123.46069528   178.87099484
 H     44  39  33     1.907425316422   118.02740931   179.51634903
 C     46  40  34     2.630273365974   116.76608894   178.29208137
 H     46  40  34     1.902954310688   120.03356109   358.88557312
 C     47  42  40     2.631256738558   116.63451317     0.57180601
 H     47  42  40     1.870202877193   119.08708373   176.84669851
 H     48  43  38     1.928817045204   120.41285999   178.50237910
 H     51  46  40     1.976314105982   119.57912905   179.82381699
 H     53  47  42     1.879732546914   118.91110068   183.45082989

---------------------
BASIS SET INFORMATION
---------------------
There are 4 groups of distinct atoms

 Group   1 Type N   : 11s6p2d1f contracted to 5s3p2d1f pattern {62111/411/11/1}
 Group   2 Type Mn  : 17s11p7d1f contracted to 6s4p4d1f pattern {842111/6311/4111/1}
 Group   3 Type C   : 11s6p2d1f contracted to 5s3p2d1f pattern {62111/411/11/1}
 Group   4 Type H   : 5s1p contracted to 3s1p pattern {311/1}

Atom   0N    basis set group =>   1
Atom   1Mn   basis set group =>   2
Atom   2N    basis set group =>   1
Atom   3N    basis set group =>   1
Atom   4N    basis set group =>   1
Atom   5C    basis set group =>   3
Atom   6C    basis set group =>   3
Atom   7C    basis set group =>   3
Atom   8C    basis set group =>   3
Atom   9C    basis set group =>   3
Atom  10C    basis set group =>   3
Atom  11C    basis set group =>   3
Atom  12C    basis set group =>   3
Atom  13C    basis set group =>   3
Atom  14C    basis set group =>   3
Atom  15C    basis set group =>   3
Atom  16C    basis set group =>   3
Atom  17C    basis set group =>   3
Atom  18C    basis set group =>   3
Atom  19C    basis set group =>   3
Atom  20C    basis set group =>   3
Atom  21H    basis set group =>   4
Atom  22H    basis set group =>   4
Atom  23H    basis set group =>   4
Atom  24H    basis set group =>   4
Atom  25H    basis set group =>   4
Atom  26H    basis set group =>   4
Atom  27H    basis set group =>   4
Atom  28H    basis set group =>   4
Atom  29N    basis set group =>   1
Atom  30N    basis set group =>   1
Atom  31C    basis set group =>   3
Atom  32C    basis set group =>   3
Atom  33C    basis set group =>   3
Atom  34C    basis set group =>   3
Atom  35C    basis set group =>   3
Atom  36N    basis set group =>   1
Atom  37C    basis set group =>   3
Atom  38C    basis set group =>   3
Atom  39C    basis set group =>   3
Atom  40N    basis set group =>   1
Atom  41C    basis set group =>   3
Atom  42C    basis set group =>   3
Atom  43C    basis set group =>   3
Atom  44H    basis set group =>   4
Atom  45C    basis set group =>   3
Atom  46C    basis set group =>   3
Atom  47C    basis set group =>   3
Atom  48H    basis set group =>   4
Atom  49H    basis set group =>   4
Atom  50C    basis set group =>   3
Atom  51H    basis set group =>   4
Atom  52C    basis set group =>   3
Atom  53H    basis set group =>   4
Atom  54H    basis set group =>   4
Atom  55H    basis set group =>   4
Atom  56H    basis set group =>   4
---------------------------------
AUXILIARY/J BASIS SET INFORMATION
---------------------------------
There are 4 groups of distinct atoms

 Group   1 Type N   : 12s5p4d2f1g contracted to 6s4p3d1f1g pattern {711111/2111/211/2/1}
 Group   2 Type Mn  : 19s5p5d3f3g contracted to 8s5p5d2f3g pattern {121111111/11111/11111/21/111}
 Group   3 Type C   : 12s5p4d2f1g contracted to 6s4p3d1f1g pattern {711111/2111/211/2/1}
 Group   4 Type H   : 5s2p1d contracted to 3s1p1d pattern {311/2/1}

Atom   0N    basis set group =>   1
Atom   1Mn   basis set group =>   2
Atom   2N    basis set group =>   1
Atom   3N    basis set group =>   1
Atom   4N    basis set group =>   1
Atom   5C    basis set group =>   3
Atom   6C    basis set group =>   3
Atom   7C    basis set group =>   3
Atom   8C    basis set group =>   3
Atom   9C    basis set group =>   3
Atom  10C    basis set group =>   3
Atom  11C    basis set group =>   3
Atom  12C    basis set group =>   3
Atom  13C    basis set group =>   3
Atom  14C    basis set group =>   3
Atom  15C    basis set group =>   3
Atom  16C    basis set group =>   3
Atom  17C    basis set group =>   3
Atom  18C    basis set group =>   3
Atom  19C    basis set group =>   3
Atom  20C    basis set group =>   3
Atom  21H    basis set group =>   4
Atom  22H    basis set group =>   4
Atom  23H    basis set group =>   4
Atom  24H    basis set group =>   4
Atom  25H    basis set group =>   4
Atom  26H    basis set group =>   4
Atom  27H    basis set group =>   4
Atom  28H    basis set group =>   4
Atom  29N    basis set group =>   1
Atom  30N    basis set group =>   1
Atom  31C    basis set group =>   3
Atom  32C    basis set group =>   3
Atom  33C    basis set group =>   3
Atom  34C    basis set group =>   3
Atom  35C    basis set group =>   3
Atom  36N    basis set group =>   1
Atom  37C    basis set group =>   3
Atom  38C    basis set group =>   3
Atom  39C    basis set group =>   3
Atom  40N    basis set group =>   1
Atom  41C    basis set group =>   3
Atom  42C    basis set group =>   3
Atom  43C    basis set group =>   3
Atom  44H    basis set group =>   4
Atom  45C    basis set group =>   3
Atom  46C    basis set group =>   3
Atom  47C    basis set group =>   3
Atom  48H    basis set group =>   4
Atom  49H    basis set group =>   4
Atom  50C    basis set group =>   3
Atom  51H    basis set group =>   4
Atom  52C    basis set group =>   3
Atom  53H    basis set group =>   4
Atom  54H    basis set group =>   4
Atom  55H    basis set group =>   4
Atom  56H    basis set group =>   4


           ************************************************************
           *        Program running with 16 parallel MPI-processes    *
           *              working on a common directory               *
           ************************************************************
------------------------------------------------------------------------------
                             ORCA STARTUP CALCULATIONS
                           -- RI-GTO INTEGRALS CHOSEN --
------------------------------------------------------------------------------
------------------------------------------------------------------------------
                   ___                                                        
                  /   \      - P O W E R E D   B Y -                         
                 /     \                                                     
                 |  |  |   _    _      __       _____    __    __             
                 |  |  |  | |  | |    /  \     |  _  \  |  |  /  |          
                  \  \/   | |  | |   /    \    | | | |  |  | /  /          
                 / \  \   | |__| |  /  /\  \   | |_| |  |  |/  /          
                |  |  |   |  __  | /  /__\  \  |    /   |      \           
                |  |  |   | |  | | |   __   |  |    \   |  |\   \          
                \     /   | |  | | |  |  |  |  | |\  \  |  | \   \       
                 \___/    |_|  |_| |__|  |__|  |_| \__\ |__|  \__/        
                                                                              
                      - O R C A' S   B I G   F R I E N D -                    
                                      &                                       
                       - I N T E G R A L  F E E D E R -                       
                                                                              
 v1 FN, 2020, v2 2021, v3 2022-2024                                           
------------------------------------------------------------------------------


----------------------
SHARK INTEGRAL PACKAGE
----------------------

Number of atoms                             ...     57
Number of basis functions                   ...   1381
Number of shells                            ...    519
Maximum angular momentum                    ...      3
Integral batch strategy                     ... SHARK/LIBINT Hybrid
RI-J (if used) integral strategy            ... SPLIT-RIJ (Revised 2003 algorithm where possible)
Printlevel                                  ...      1
Contraction scheme used                     ... SEGMENTED contraction
Prescreening option                         ... SCHWARTZ
   Thresh                                   ... 2.500e-11
   Tcut                                     ... 2.500e-12
   Tpresel                                  ... 2.500e-12 
Coulomb Range Separation                    ... NOT USED
Exchange Range Separation                   ... NOT USED
Multipole approximations                    ... NOT USED
Finite Nucleus Model                        ... NOT USED
CABS basis                                  ... NOT available
Auxiliary Coulomb fitting basis             ... AVAILABLE
   # of basis functions in Aux-J            ...   2225
   # of shells in Aux-J                     ...    703
   Maximum angular momentum in Aux-J        ...      4
Auxiliary J/K fitting basis                 ... NOT available
Auxiliary Correlation fitting basis         ... NOT available
Auxiliary 'external' fitting basis          ... NOT available

Checking pre-screening integrals            ... done (  0.0 sec) Dimension = 519
Check shell pair data                       ... done (  0.0 sec)
Shell pair information
Shell pair cut-off parameter TPreSel        ...   2.5e-12
Total number of shell pairs                 ...    134940
Shell pairs after pre-screening             ...     72942
Total number of primitive shell pairs       ...    435765
Primitive shell pairs kept                  ...    146464
          la=0 lb=0:  16213 shell pairs
          la=1 lb=0:  20796 shell pairs
          la=1 lb=1:   6548 shell pairs
          la=2 lb=0:  10688 shell pairs
          la=2 lb=1:   7050 shell pairs
          la=2 lb=2:   1856 shell pairs
          la=3 lb=0:   4706 shell pairs
          la=3 lb=1:   3202 shell pairs
          la=3 lb=2:   1548 shell pairs
          la=3 lb=3:    335 shell pairs

Calculating one electron integrals          ... done (  0.1 sec)
done (  0.3 sec)
Calculating Nuclear repulsion               ... done (  0.0 sec) ENN=   4899.573987803848 Eh

Diagonalization of the overlap matrix:
Smallest eigenvalue                        ... 2.148e-06
Time for diagonalization                   ...    0.218 sec
Threshold for overlap eigenvalues          ... 1.000e-07
Number of eigenvalues below threshold      ... 0
Time for construction of square roots      ...    0.213 sec
Total time needed                          ...    0.471 sec

-------------------
DFT GRID GENERATION
-------------------

General Integration Accuracy     IntAcc      ... 4.959
Radial Grid Type                 RadialGrid  ... OptM3 with GC (2021)
Angular Grid (max. ang.)         AngularGrid ... 6 (Lebedev-590)
Angular grid pruning method      GridPruning ... 4 (adaptive)
Weight generation scheme         WeightScheme... mBecke (2022)
Basis function cutoff            BFCut       ... 1.0000e-11
Integration weight cutoff        WCut        ... 1.0000e-14
Partially contracted basis set               ... off
Rotationally invariant grid construction     ... off
Angular grids for H and He will be reduced by one unit
Core-polarized basis detected: some atoms will have their core
                               angular grid increased.

Total number of grid points                  ...   728946
Total number of batches                      ...    11421
Average number of points per batch           ...       63
Average number of grid points per atom       ...    12789

--------------------
COSX GRID GENERATION
--------------------

GRIDX 1
-------
General Integration Accuracy     IntAcc      ... 4.020
Radial Grid Type                 RadialGrid  ... OptM3 with GC (2021)
Angular Grid (max. ang.)         AngularGrid ... 2 (Lebedev-110)
Angular grid pruning method      GridPruning ... 4 (adaptive)
Weight generation scheme         WeightScheme... mBecke (2022)
Basis function cutoff            BFCut       ... 1.0000e-11
Integration weight cutoff        WCut        ... 1.0000e-14
Partially contracted basis set               ... on
Rotationally invariant grid construction     ... off
Angular grids for H and He will be reduced by one unit
Core-polarized basis detected: some atoms will have their core
                               angular grid increased.

Total number of grid points                  ...    86794
Total number of batches                      ...      704
Average number of points per batch           ...      123
Average number of grid points per atom       ...     1523
UseSFitting                                  ... on

GRIDX 2
-------
General Integration Accuracy     IntAcc      ... 4.338
Radial Grid Type                 RadialGrid  ... OptM3 with GC (2021)
Angular Grid (max. ang.)         AngularGrid ... 3 (Lebedev-194)
Angular grid pruning method      GridPruning ... 4 (adaptive)
Weight generation scheme         WeightScheme... mBecke (2022)
Basis function cutoff            BFCut       ... 1.0000e-11
Integration weight cutoff        WCut        ... 1.0000e-14
Partially contracted basis set               ... on
Rotationally invariant grid construction     ... off
Angular grids for H and He will be reduced by one unit
Core-polarized basis detected: some atoms will have their core
                               angular grid increased.

Total number of grid points                  ...   184186
Total number of batches                      ...     1466
Average number of points per batch           ...      125
Average number of grid points per atom       ...     3231
UseSFitting                                  ... on

GRIDX 3
-------
General Integration Accuracy     IntAcc      ... 4.871
Radial Grid Type                 RadialGrid  ... OptM3 with GC (2021)
Angular Grid (max. ang.)         AngularGrid ... 4 (Lebedev-302)
Angular grid pruning method      GridPruning ... 4 (adaptive)
Weight generation scheme         WeightScheme... mBecke (2022)
Basis function cutoff            BFCut       ... 1.0000e-11
Integration weight cutoff        WCut        ... 1.0000e-14
Partially contracted basis set               ... on
Rotationally invariant grid construction     ... off
Angular grids for H and He will be reduced by one unit
Core-polarized basis detected: some atoms will have their core
                               angular grid increased.

Total number of grid points                  ...   335162
Total number of batches                      ...     2646
Average number of points per batch           ...      126
Average number of grid points per atom       ...     5880
UseSFitting                                  ... on
Initializing property integral containers    ... done (  0.0 sec)

SHARK setup successfully completed in  14.6 seconds

Maximum memory used throughout the entire STARTUP-calculation: 238.9 MB


           ************************************************************
           *        Program running with 16 parallel MPI-processes    *
           *              working on a common directory               *
           ************************************************************
-------------------------------------------------------------------------------
                                 ORCA GUESS
                   Start orbitals & Density for SCF / CASSCF
-------------------------------------------------------------------------------

------------
SCF SETTINGS
------------
Hamiltonian:
 Density Functional     Method          .... DFT(GTOs)
 Exchange Functional    Exchange        .... PBE
   PBE kappa parameter   XKappa         ....  0.804000
   PBE mue parameter    XMuePBE         ....  0.219520
 Correlation Functional Correlation     .... PBE
   PBE beta parameter  CBetaPBE         ....  0.066725
 LDA part of GGA corr.  LDAOpt          .... PW91-LDA
 Gradients option       PostSCFGGA      .... off
 Hybrid DFT is turned on
   Fraction HF Exchange ScalHFX         ....  0.250000
   Scaling of DF-GGA-X  ScalDFX         ....  0.750000
   Scaling of DF-GGA-C  ScalDFC         ....  1.000000
   Scaling of DF-LDA-C  ScalLDAC        ....  1.000000
   Perturbative correction              ....  0.000000
   NL short-range parameter             ....  6.900000
 RI-approximation to the Coulomb term is turned on
   Number of AuxJ basis functions       .... 2225
   RIJ-COSX (HFX calculated with COS-X)).... on


General Settings:
 Integral files         IntName         .... MNPHCY21-S4
 Hartree-Fock type      HFTyp           .... UHF
 Total Charge           Charge          ....    0
 Multiplicity           Mult            ....    4
 Number of Electrons    NEL             ....  289
 Basis Dimension        Dim             .... 1381
 Nuclear Repulsion      ENuc            ....   4899.5739878038 Eh

Convergence Acceleration:
 AO-DIIS                CNVDIIS         .... on
   Start iteration      DIISMaxIt       ....    12
   Startup error        DIISStart       ....  0.200000
   # of expansion vecs  DIISMaxEq       ....     5
   Bias factor          DIISBfac        ....   1.050
   Max. coefficient     DIISMaxC        ....  10.000
 MO-DIIS                CNVKDIIS        .... off
 Trust-Rad. Augm. Hess. CNVTRAH         .... auto
   Auto Start mean grad. ratio tolernc. ....  1.125000
   Auto Start start iteration           ....    50
   Auto Start num. interpolation iter.  ....    10
   Max. Number of Micro iterations      ....    24
   Max. Number of Macro iterations      .... Maxiter - #DIIS iter
   Number of Davidson start vectors     ....     2
   Converg. threshold    (grad. norm)   ....   1.000e-05
   Grad. Scal. Fac. for Micro threshold ....   0.100
   Minimum threshold for Micro iter.    ....   1.000e-02
   NR start threshold (gradient norm)   ....   1.000e-04
   Initial trust radius                 ....   0.400
   Minimum AH scaling param. (alpha)    ....   1.000
   Maximum AH scaling param. (alpha)    .... 1000.000
   Quad. conv. algorithm                .... NR
   White noise on init. David. guess    .... on
   Maximum white noise                  ....   0.010
   Pseudo random numbers                .... off
   Inactive MOs                         .... canonical
   Orbital update algorithm             .... Taylor
   Preconditioner                       .... Diag
   Full preconditioner red. dimension   ....   250
 SOSCF                  CNVSOSCF        .... on
   Start iteration      SOSCFMaxIt      ....   150
   Startup grad/error   SOSCFStart      ....  0.003300
   Hessian update       SOSCFHessUp     .... L-BFGS
 Level Shifting         CNVShift        .... on
   Level shift para.    LevelShift      ....    0.2500
   Turn off err/grad.   ShiftErr        ....    0.0010
 Zerner damping         CNVZerner       .... off
 Static damping         CNVDamp         .... on
   Fraction old density DampFac         ....    0.7000
   Max. Damping (<1)    DampMax         ....    0.9800
   Min. Damping (>=0)   DampMin         ....    0.0000
   Turn off err/grad.   DampErr         ....    0.1000

SCF Procedure:
 Maximum # iterations   MaxIter         ....   125
 SCF integral mode      SCFMode         .... Direct
   Integral package                     .... SHARK and LIBINT hybrid scheme
 Reset frequency        DirectResetFreq ....    20
 Integral Threshold     Thresh          ....  2.500e-11 Eh
 Primitive CutOff       TCut            ....  2.500e-12 Eh

Convergence Tolerance:
 Convergence Check Mode ConvCheckMode   .... Total+1el-Energy
 Convergence forced     ConvForced      .... 0
 Energy Change          TolE            ....  1.000e-08 Eh
 1-El. energy change                    ....  1.000e-05 Eh
 Orbital Gradient       TolG            ....  1.000e-05
 Orbital Rotation angle TolX            ....  1.000e-05
 DIIS Error             TolErr          ....  5.000e-07

------------------------------
INITIAL GUESS: MODEL POTENTIAL
------------------------------
Loading Hartree-Fock densities                     ... done
Calculating cut-offs                               ... done
Initializing the effective Hamiltonian             ... done
Setting up the integral package (SHARK)            ... done
done (   0.6 sec)
Making the grid                                    ... done (   0.5 sec)
Mapping shells                                     ... done
Starting the XC term evaluation                    ... done (   0.3 sec)
  promolecular density results
     # of electrons  =    288.994328124
     EX              =   -271.846007816
     EC              =    -10.134630362
     EX+EC           =   -281.980638178
done (   0.2 sec)
done (   0.2 sec)
Back transforming the eigenvectors                 ... done (   0.1 sec)
done
                      ------------------
                      INITIAL GUESS DONE (   2.1 sec)
                      ------------------
             **** ENERGY FILE WAS UPDATED (MNPHCY21-S4.en.tmp) ****
Finished Guess after   2.8 sec
Maximum memory used throughout the entire GUESS-calculation: 141.5 MB


           ************************************************************
           *        Program running with 16 parallel MPI-processes    *
           *              working on a common directory               *
           ************************************************************

-------------------------------------------------------------------------------------------
                                      ORCA LEAN-SCF
                              memory conserving SCF solver
-------------------------------------------------------------------------------------------

----------------------------------------D-I-I-S--------------------------------------------
Iteration    Energy (Eh)           Delta-E    RMSDP     MaxDP     DIISErr   Damp  Time(sec)
-------------------------------------------------------------------------------------------
               ***  Starting incremental Fock matrix formation  ***
    1    -2815.0982913137440846     0.00e+00  8.40e-04  4.33e-01  3.08e-01  0.700  41.1
Warning: op=0 Small HOMO/LUMO gap (  -1.002) - skipping pre-diagonalization
         LevelShift set to 1.000 Eh
         Will do a full diagonalization
    2    -2815.1650642034073826    -6.68e-02  5.78e-04  1.62e-01  2.18e-01  0.700  21.8
                               ***Turning on AO-DIIS***
    3    -2815.0341529535999143     1.31e-01  5.12e-04  1.30e-01  1.92e-01  0.700  20.1
    4    -2815.0565807794973807    -2.24e-02  4.72e-04  9.51e-02  1.85e-01  0.700  19.6
    5    -2815.2078169052892918    -1.51e-01  3.98e-04  6.58e-02  1.67e-01  0.700  19.5
    6    -2815.4079285584621175    -2.00e-01  3.99e-04  7.74e-02  1.36e-01  0.700  19.4
    7    -2815.6612299149701357    -2.53e-01  2.83e-04  9.38e-02  4.96e-02  0.700  19.1
[...]
164:   3217.59   0.001243    6.28  0.000121  ( 0.009183 -0.005382  0.002688)
165:   3217.80   0.000797    4.03  0.000077  (-0.000133  0.004962  0.007256)
166:   3217.84   0.000576    2.91  0.000056  (-0.000426  0.004381  0.006044)
167:   3220.83   0.008290   41.90  0.000803  ( 0.000817  0.015325  0.023826)
168:   3220.88   0.000168    0.85  0.000016  ( 0.000208  0.002125  0.003417)
169:   3221.15   0.007241   36.59  0.000701  ( 0.022201 -0.012221  0.007696)
170:   3221.21   0.000175    0.88  0.000017  ( 0.003442 -0.001758  0.001410)

* The epsilon (eps) is given for a Dirac delta lineshape.
** The dipole moment derivative (T) already includes vibrational overlap.

The first frequency considered to be a vibration is 6
The total number of vibrations considered is 165


--------------------------
THERMOCHEMISTRY AT 298.15K
--------------------------

Temperature         ...   298.15 K
Pressure            ...     1.00 atm
Total Mass          ...   567.48 AMU
Quasi RRHO          ...     True
Cut-Off Frequency   ...     1.00 cm^-1

Throughout the following assumptions are being made:
  (1) The electronic state is orbitally nondegenerate
      but the spin degeneracy is treated
  (2) There are no thermally accessible electronically excited states
  (3) Hindered rotations indicated by low frequency modes are not
      treated as such but are treated as vibrations and this may
      cause some error
  (4) All equations used are the standard statistical mechanics
      equations for an ideal gas
  (5) All vibrations are strictly harmonic

freq.      20.10  E(vib)   ...       0.56 
freq.      41.07  E(vib)   ...       0.54 
freq.      52.32  E(vib)   ...       0.52 
freq.      63.27  E(vib)   ...       0.51 
freq.      68.55  E(vib)   ...       0.50 
freq.     110.08  E(vib)   ...       0.45 
freq.     121.26  E(vib)   ...       0.44 
freq.     122.67  E(vib)   ...       0.43 
freq.     123.18  E(vib)   ...       0.43 
freq.     124.54  E(vib)   ...       0.43 
freq.     128.13  E(vib)   ...       0.43 
freq.     139.95  E(vib)   ...       0.41 
freq.     161.90  E(vib)   ...       0.39 
freq.     200.23  E(vib)   ...       0.35 
freq.     215.45  E(vib)   ...       0.34 
freq.     223.64  E(vib)   ...       0.33 
freq.     229.52  E(vib)   ...       0.32 
freq.     250.64  E(vib)   ...       0.30 
freq.     262.94  E(vib)   ...       0.29 
freq.     265.07  E(vib)   ...       0.29 
freq.     279.75  E(vib)   ...       0.28 
freq.     292.23  E(vib)   ...       0.27 
freq.     298.76  E(vib)   ...       0.26 
freq.     298.94  E(vib)   ...       0.26 
freq.     300.63  E(vib)   ...       0.26 
freq.     326.22  E(vib)   ...       0.24 
freq.     352.96  E(vib)   ...       0.22 
freq.     357.27  E(vib)   ...       0.22 
freq.     373.71  E(vib)   ...       0.21 
freq.     432.08  E(vib)   ...       0.18 
freq.     435.79  E(vib)   ...       0.17 
freq.     435.97  E(vib)   ...       0.17 
freq.     438.07  E(vib)   ...       0.17 
freq.     449.36  E(vib)   ...       0.17 
freq.     491.92  E(vib)   ...       0.14 
freq.     500.29  E(vib)   ...       0.14 
freq.     509.03  E(vib)   ...       0.14 
freq.     521.89  E(vib)   ...       0.13 
freq.     523.87  E(vib)   ...       0.13 
freq.     530.90  E(vib)   ...       0.13 
freq.     575.25  E(vib)   ...       0.11 
freq.     582.97  E(vib)   ...       0.11 
freq.     583.57  E(vib)   ...       0.11 
freq.     589.53  E(vib)   ...       0.10 
freq.     603.99  E(vib)   ...       0.10 
freq.     630.50  E(vib)   ...       0.09 
freq.     637.40  E(vib)   ...       0.09 
freq.     643.84  E(vib)   ...       0.09 
freq.     658.09  E(vib)   ...       0.08 
freq.     659.31  E(vib)   ...       0.08 
freq.     659.35  E(vib)   ...       0.08 
freq.     686.25  E(vib)   ...       0.07 
freq.     697.79  E(vib)   ...       0.07 
freq.     698.86  E(vib)   ...       0.07 
freq.     709.05  E(vib)   ...       0.07 
freq.     743.74  E(vib)   ...       0.06 
freq.     743.88  E(vib)   ...       0.06 
freq.     756.41  E(vib)   ...       0.06 
freq.     770.52  E(vib)   ...       0.05 
freq.     771.94  E(vib)   ...       0.05 
freq.     776.29  E(vib)   ...       0.05 
freq.     784.76  E(vib)   ...       0.05 
freq.     791.42  E(vib)   ...       0.05 
freq.     793.45  E(vib)   ...       0.05 
freq.     806.05  E(vib)   ...       0.05 
freq.     806.07  E(vib)   ...       0.05 
freq.     809.96  E(vib)   ...       0.05 
freq.     812.19  E(vib)   ...       0.05 
freq.     812.34  E(vib)   ...       0.05 
freq.     814.68  E(vib)   ...       0.05 
freq.     827.70  E(vib)   ...       0.04 
freq.     828.42  E(vib)   ...       0.04 
freq.     862.90  E(vib)   ...       0.04 
freq.     874.82  E(vib)   ...       0.04 
freq.     891.85  E(vib)   ...       0.03 
freq.     892.92  E(vib)   ...       0.03 
freq.     898.05  E(vib)   ...       0.03 
freq.     898.86  E(vib)   ...       0.03 
freq.     926.91  E(vib)   ...       0.03 
freq.     931.37  E(vib)   ...       0.03 
freq.     946.27  E(vib)   ...       0.03 
freq.     965.73  E(vib)   ...       0.03 
freq.     966.01  E(vib)   ...       0.03 
freq.     967.51  E(vib)   ...       0.03 
freq.     967.76  E(vib)   ...       0.03 
freq.     984.07  E(vib)   ...       0.02 
freq.     984.17  E(vib)   ...       0.02 
freq.     986.01  E(vib)   ...       0.02 
freq.     986.04  E(vib)   ...       0.02 
freq.    1036.95  E(vib)   ...       0.02 
freq.    1037.09  E(vib)   ...       0.02 
freq.    1041.21  E(vib)   ...       0.02 
freq.    1041.44  E(vib)   ...       0.02 
freq.    1065.59  E(vib)   ...       0.02 
freq.    1096.52  E(vib)   ...       0.02 
freq.    1097.18  E(vib)   ...       0.02 
freq.    1108.24  E(vib)   ...       0.02 
freq.    1121.85  E(vib)   ...       0.01 
freq.    1128.51  E(vib)   ...       0.01 
freq.    1144.67  E(vib)   ...       0.01 
freq.    1147.32  E(vib)   ...       0.01 
freq.    1156.50  E(vib)   ...       0.01 
freq.    1157.56  E(vib)   ...       0.01 
freq.    1162.27  E(vib)   ...       0.01 
freq.    1162.79  E(vib)   ...       0.01 
freq.    1192.35  E(vib)   ...       0.01 
freq.    1193.83  E(vib)   ...       0.01 
freq.    1194.12  E(vib)   ...       0.01 
freq.    1201.97  E(vib)   ...       0.01 
freq.    1222.48  E(vib)   ...       0.01 
freq.    1228.99  E(vib)   ...       0.01 
freq.    1229.16  E(vib)   ...       0.01 
freq.    1235.39  E(vib)   ...       0.01 
freq.    1318.15  E(vib)   ...       0.01 
freq.    1321.56  E(vib)   ...       0.01 
freq.    1330.16  E(vib)   ...       0.01 
freq.    1330.20  E(vib)   ...       0.01 
freq.    1353.43  E(vib)   ...       0.01 
freq.    1356.74  E(vib)   ...       0.01 
freq.    1358.71  E(vib)   ...       0.01 
freq.    1366.52  E(vib)   ...       0.01 
freq.    1393.66  E(vib)   ...       0.00 
freq.    1406.25  E(vib)   ...       0.00 
freq.    1407.18  E(vib)   ...       0.00 
freq.    1415.13  E(vib)   ...       0.00 
freq.    1464.66  E(vib)   ...       0.00 
freq.    1465.89  E(vib)   ...       0.00 
freq.    1469.89  E(vib)   ...       0.00 
freq.    1485.80  E(vib)   ...       0.00 
freq.    1492.95  E(vib)   ...       0.00 
freq.    1516.31  E(vib)   ...       0.00 
freq.    1517.97  E(vib)   ...       0.00 
freq.    1519.69  E(vib)   ...       0.00 
freq.    1539.44  E(vib)   ...       0.00 
freq.    1543.21  E(vib)   ...       0.00 
freq.    1548.93  E(vib)   ...       0.00 
freq.    1565.25  E(vib)   ...       0.00 
freq.    1574.55  E(vib)   ...       0.00 
freq.    1585.74  E(vib)   ...       0.00 
freq.    1597.98  E(vib)   ...       0.00 
freq.    1605.46  E(vib)   ...       0.00 
freq.    1639.89  E(vib)   ...       0.00 
freq.    1639.99  E(vib)   ...       0.00 
freq.    1658.83  E(vib)   ...       0.00 
freq.    1660.22  E(vib)   ...       0.00 
freq.    1670.66  E(vib)   ...       0.00 
freq.    1672.23  E(vib)   ...       0.00 
freq.    1673.94  E(vib)   ...       0.00 
freq.    1674.69  E(vib)   ...       0.00 
freq.    3189.51  E(vib)   ...       0.00 
freq.    3189.78  E(vib)   ...       0.00 
freq.    3190.50  E(vib)   ...       0.00 
freq.    3190.66  E(vib)   ...       0.00 
freq.    3203.30  E(vib)   ...       0.00 
freq.    3203.31  E(vib)   ...       0.00 
freq.    3204.37  E(vib)   ...       0.00 
freq.    3204.40  E(vib)   ...       0.00 
freq.    3217.57  E(vib)   ...       0.00 
freq.    3217.59  E(vib)   ...       0.00 
freq.    3217.80  E(vib)   ...       0.00 
freq.    3217.84  E(vib)   ...       0.00 
freq.    3220.83  E(vib)   ...       0.00 
freq.    3220.88  E(vib)   ...       0.00 
freq.    3221.15  E(vib)   ...       0.00 
freq.    3221.21  E(vib)   ...       0.00 

------------
INNER ENERGY
------------

The inner energy is: U= E(el) + E(ZPE) + E(vib) + E(rot) + E(trans)
    E(el)   - is the total energy from the electronic structure calculation
              = E(kin-el) + E(nuc-el) + E(el-el) + E(nuc-nuc)
    E(ZPE)  - the the zero temperature vibrational energy from the frequency calculation
    E(vib)  - the the finite temperature correction to E(ZPE) due to population
              of excited vibrational states
    E(rot)  - is the rotational thermal energy
    E(trans)- is the translational thermal energy

Summary of contributions to the inner energy U:
Electronic energy                ...  -2816.72005721 Eh
Zero point energy                ...      0.41678526 Eh     261.54 kcal/mol
Thermal vibrational correction   ...      0.02443855 Eh      15.34 kcal/mol
Thermal rotational correction    ...      0.00141627 Eh       0.89 kcal/mol
Thermal translational correction ...      0.00141627 Eh       0.89 kcal/mol
-----------------------------------------------------------------------
Total thermal energy                  -2816.27600085 Eh


Summary of corrections to the electronic energy:
(perhaps to be used in another calculation)
Total thermal correction                  0.02727109 Eh      17.11 kcal/mol
Non-thermal (ZPE) correction              0.41678526 Eh     261.54 kcal/mol
-----------------------------------------------------------------------
Total correction                          0.44405636 Eh     278.65 kcal/mol


--------
ENTHALPY
--------

The enthalpy is H = U + kB*T
                kB is Boltzmann's constant
Total thermal energy              ...  -2816.27600085 Eh 
Thermal Enthalpy correction       ...      0.00094421 Eh       0.59 kcal/mol
-----------------------------------------------------------------------
Total Enthalpy                    ...  -2816.27505664 Eh


WARNING (ORCA/SYM): A non-planar off-center atom subset has been encountered
in function TSymmetryFinder::FilterSubsetShapes() which cannot occur under
regular conditions. The full point group may not be assigned correctly. If the
symmetry appears to be too low, please try increasing the cleaning tolerance
using option SymThresh in the %symmetry input block. If the problem persists,
you may post a message in the ORCA forum.

WARNING (ORCA/SYM): A non-planar off-center atom subset has been encountered
in function TSymmetryFinder::FilterSubsetShapes() which cannot occur under
regular conditions. The full point group may not be assigned correctly. If the
symmetry appears to be too low, please try increasing the cleaning tolerance
using option SymThresh in the %symmetry input block. If the problem persists,
you may post a message in the ORCA forum.

Note: Only C1 symmetry has been detected, increase convergence thresholds 
      if your molecule has a higher symmetry. Symmetry factor of 1.0 is   
      used for the rotational entropy correction. 
 

Note: Rotational entropy computed according to Herzberg 
Infrared and Raman Spectra, Chapter V,1, Van Nostrand Reinhold, 1945 
Point Group:  C1, Symmetry Number:   1  
Rotational constants in cm-1:     0.003029     0.003024     0.001513 

Vibrational entropy computed according to the QRRHO of S. Grimme
Chem.Eur.J. 2012 18 9955 using a reference frequency of 100.0 cm-1


-------
ENTROPY
-------

The entropy contributions are T*S = T*(S(el)+S(vib)+S(rot)+S(trans))
     S(el)   - electronic entropy
     S(vib)  - vibrational entropy
     S(rot)  - rotational entropy
     S(trans)- translational entropy
The entropies will be listed as multiplied by the temperature to get
units of energy

Electronic entropy                ...      0.00130891 Eh      0.82 kcal/mol
Vibrational entropy               ...      0.04171164 Eh     26.17 kcal/mol
Rotational entropy                ...      0.01805272 Eh     11.33 kcal/mol
Translational entropy             ...      0.02132993 Eh     13.38 kcal/mol
-----------------------------------------------------------------------
Final entropy term                ...      0.08240320 Eh     51.71 kcal/mol

In case the symmetry of your molecule has not been determined correctly
or in case you have a reason to use a different symmetry number we print 
out the resulting rotational entropy values for sn=1,12:

 non-linear molecules -----------------------------------
|  sn= 1 | S(rot)=       0.01805272 Eh     11.33 kcal/mol|
|  sn= 2 | S(rot)=       0.01739826 Eh     10.92 kcal/mol|
|  sn= 3 | S(rot)=       0.01701543 Eh     10.68 kcal/mol|
|  sn= 4 | S(rot)=       0.01674381 Eh     10.51 kcal/mol|
|  sn= 5 | S(rot)=       0.01653312 Eh     10.37 kcal/mol|
|  sn= 6 | S(rot)=       0.01636097 Eh     10.27 kcal/mol|
|  sn= 7 | S(rot)=       0.01621543 Eh     10.18 kcal/mol|
|  sn= 8 | S(rot)=       0.01608935 Eh     10.10 kcal/mol|
|  sn= 9 | S(rot)=       0.01597814 Eh     10.03 kcal/mol|
|  sn=10 | S(rot)=       0.01587866 Eh      9.96 kcal/mol|
|  sn=11 | S(rot)=       0.01578867 Eh      9.91 kcal/mol|
|  sn=12 | S(rot)=       0.01570652 Eh      9.86 kcal/mol|
 linear molecules ---------------------------------------
|  Dinfh | S(rot)=       0.01145672 Eh      7.19 kcal/mol|
|  Cinfv | S(rot)=       0.01211117 Eh      7.60 kcal/mol|
 --------------------------------------------------------


-------------------
GIBBS FREE ENERGY
-------------------

The Gibbs free energy is G = H - T*S

Total enthalpy                    ...  -2816.27505664 Eh 
Total entropy correction          ...     -0.08240320 Eh    -51.71 kcal/mol
-----------------------------------------------------------------------
Final Gibbs free energy         ...  -2816.35745984 Eh

For completeness - the Gibbs free energy minus the electronic energy
G-E(el)                           ...      0.36259737 Eh    227.53 kcal/mol


Maximum memory used throughout the entire PROP-calculation: 2166.7 MB

--------------------------------
SUGGESTED CITATIONS FOR THIS RUN
--------------------------------

Below you find a list of papers that are relevant to this ORCA run
We neither can nor want to force you to cite these papers, but we appreciate if you do
You receive ORCA, which is the product of decades of hard work by many enthusiastic individuals, for free
The only thing we kindly ask in return is that you cite our papers,
We deeply appreciate it, if you show your appreciation for ORCA by not just citing the generic ORCA reference.

Please note that relegating all ORCA citations to the supporting information does *not* help us.
SI sections are not indexed - citations you put there will not count into any citation statistics
But we need these citations in order to attract the funding resources that allow us to do what we are doing

Therefore, if you are a happy ORCA user, please consider citing a few of the papers listed below in the main body of your paper

In addition to the list printed below, the program has created the file MNPHCY21-S4.bibtex that contains the list in bibtex format
You can import this file easily into all common literature databanks and citation aid programs


List of essential papers. We consider these as the minimum necessary citations

  1. Neese,F.
     Software update: the ORCA program system, version 5.0
     WIRES Comput. Molec. Sci., 2022 12(1)e1606
     doi.org/10.1002/wcms.1606

List of papers to cite with high priority. The work reported in these papers was absolutely
necessary for this run to complete.
Our perspective: the developers of density functionals and basis sets usually get cited in chemistry papers
Good! But without the algorithms to do something with them, the functionals or basis sets would not do anything.
Hence, in our opinion, the algorithm design and method developments papers are equally worthy of getting cited

  1. Neese,F.
     An improvement of the resolution of the identity approximation for the formation of the Coulomb matrix
     J. Comp. Chem., 2003 24(14)1740-1747
     doi.org/10.1002/jcc.10318
  2. Neese,F.; Wennmohs,F.; Hansen,A.; Becker,U.
     Efficient, approximate and parallel Hartree-Fock and hybrid DFT calculations. A 'chain-of-spheres' algorithm for the Hartree-Fock exchange
     Chem. Phys., 2009 356(1-3)98-109
     doi.org/10.1016/j.chemphys.2008.10.036
  3. Bykov,D.; Petrenko,T.; Izsak,R.; Kossmann,S.; Becker,U.; Valeev,E.; Neese,F.
     Efficient implementation of the analytic second derivatives of Hartree-Fock and hybrid DFT energies: a detailed analysis of different approximations
     Molec. Phys., 2015 113 1961-1977
     doi.org/10.1080/00268976.2015.1025114
  4. Helmich-Paris,B.; de Souza,B.; Neese,F.; Izsák,R.
     An improved chain of spheres for exchange algorithm
     J. Chem. Phys., 2021 155 104109
     doi.org/doi: 10.1063/5.0058766.
  5. Helmich-Paris,B.
     A trust-region augmented Hessian implementation for restricted and unrestricted Hartree–Fock and Kohn–Sham methods
     J. Chem. Phys., 2021 154 164104
     doi.org/10.1063/5.0040798
  6. Neese,F.
     The SHARK Integral Generation and Digestion System
     J. Comp. Chem., 2022  1-16
     doi.org/10.1002/jcc.26942

List of suggested additional citations. These are papers that are important in the 'surrounding' of 
of this run, or papers that preceded the highly important papers. If you like your results we are grateful for a citation.

  1. Izsak,R.; Neese,F.
     An overlap fitted chain of spheres exchange method
     J. Chem. Phys., 2011 135 144105
     doi.org/10.1063/1.3646921
  2. Izsak,R.; Hansen,A.; Neese,F.
     The resolution of identity and chain of spheres approximations for the LPNO-CCSD singles Fock term
     Molec. Phys., 2012 110 2413-2417
     doi.org/10.1080/00268976.2012.687466
  3. Neese,F.
     The ORCA program system
     WIRES Comput. Molec. Sci., 2012 2(1)73-78
     doi.org/10.1002/wcms.81
  4. Izsak,R.; Neese,F.; Klopper,W.
     Robust fitting techniques in the chain of spheres approximation to the Fock exchange: The role of the complementary space
     J. Chem. Phys., 2013 139 
     doi.org/10.1063/1.4819264
  5. Neese,F.
     Software update: the ORCA program system, version 4.0
     WIRES Comput. Molec. Sci., 2018 8(1)1-6
     doi.org/10.1002/wcms.1327
  6. Neese,F.; Wennmohs,F.; Becker,U.; Riplinger,C.
     The ORCA quantum chemistry program package
     J. Chem. Phys., 2020 152 Art. No. L224108
     doi.org/10.1063/5.0004608

List of optional additional citations

  1. Neese,F.
     Approximate second-order SCF convergence for spin unrestricted wavefunctions
     Chem. Phys. Lett., 2000 325(1-3)93-98
     doi.org/10.1016/s0009-2614(00)00662-x

Timings for individual modules:

Sum of individual times          ...    41597.448 sec (= 693.291 min)
Startup calculation              ...      200.546 sec (=   3.342 min)   0.5 %
SCF iterations                   ...     9608.397 sec (= 160.140 min)  23.1 %
Property integrals               ...     6034.282 sec (= 100.571 min)  14.5 %
SCF Response                     ...    22828.704 sec (= 380.478 min)  54.9 %
Property calculations            ...     1898.630 sec (=  31.644 min)   4.6 %
SCF Gradient evaluation          ...     1026.316 sec (=  17.105 min)   2.5 %
Geometry relaxation              ...        0.573 sec (=   0.010 min)   0.0 %
                             ****ORCA TERMINATED NORMALLY****
TOTAL RUN TIME: 0 days 11 hours 33 minutes 35 seconds 843 msec
