
                                 *****************
                                 * O   R   C   A *
                                 *****************

                                            #,                                       
                                            ###                                      
                                            ####                                     
                                            #####                                    
                                            ######                                   
                                           ########,                                 
                                     ,,################,,,,,                         
                               ,,#################################,,                 
                          ,,##########################################,,             
                       ,#########################################, ''#####,          
                    ,#############################################,,   '####,        
                  ,##################################################,,,,####,       
                ,###########''''           ''''###############################       
              ,#####''   ,,,,##########,,,,          '''####'''          '####       
            ,##' ,,,,###########################,,,                        '##       
           ' ,,###''''                  '''############,,,                           
         ,,##''                                '''############,,,,        ,,,,,,###''
      ,#''                                            '''#######################'''  
     '                                                          ''''####''''         
             ,#######,   #######,   ,#######,      ##                                
            ,#'     '#,  ##    ##  ,#'     '#,    #''#        ,####,   ,####,        
            ##       ##  ##   ,#'  ##            #'  '#       #'       #'  '#        
            ##       ##  #######   ##           ,######,      #####,   #    #        
            '#,     ,#'  ##    ##  '#,     ,#' ,#      #,     #,   #   #,  ,#        
             '#######'   ##     ##  '#######'  #'      '#     '####' # '####'        



                #########################################################
                #                        -***-                          #
                #          Department of theory and spectroscopy        #
                #                                                       #
                #                      Frank Neese                      #
                #                                                       #
                #     Directorship, Architecture, Infrastructure        #
                #                    SHARK, DRIVERS                     #
                #        Core code/Algorithms in most modules           #
                #                                                       #
                #        Max Planck Institute fuer Kohlenforschung      #
                #                Kaiser Wilhelm Platz 1                 #
                #                 D-45470 Muelheim/Ruhr                 #
                #                      Germany                          #
                #                                                       #
                #                  All rights reserved                  #
                #                        -***-                          #
                #########################################################


                         Program Version 6.0.1  -  RELEASE   -


 With contributions from (in alphabetic order):
[Max-Planck-Institut fuer Kohlenforschung]                               
  Daniel Aravena         : Magnetic Suceptibility                        
  Michael Atanasov       : Ab Initio Ligand Field Theory (pilot matlab implementation)
  Alexander A. Auer      : GIAO ZORA, VPT2 properties, NMR spectrum      
  Ute Becker             : All parallelization in ORCA, NUMFREQ, NUMCALC 
  Giovanni Bistoni       : ED, misc. LED, open-shell LED, HFLD           
  Martin Brehm           : Molecular dynamics                            
  Dmytro Bykov           : pre 5.0 version of the SCF Hessian            
  Marcos Casanova-Páez   : Triplet and SCS-CIS(D). UHF-(DLPNO)-IP/EA/STEOM-CCSD. UHF-CVS-IP/STEOM-CCSD   
  Vijay G. Chilkuri      : MRCI spin determinant printing, contributions to CSF-ICE 
  Pauline Colinet        : FMM embedding                                 
  Dipayan Datta          : RHF DLPNO-CCSD density                        
  Achintya Kumar Dutta   : EOM-CC, STEOM-CC                              
  Nicolas Foglia         : Exact transition moments, OPA infrastructure, MCD improvements    
  Dmitry Ganyushin       : Spin-Orbit,Spin-Spin,Magnetic field MRCI      
  Miquel Garcia-Rates    : C-PCM and meta-GGA Hessian, CCSD/C-PCM, Gaussian charge scheme 
  Tiago L. C. Gouveia    : GS-ROHF, GS-ROCIS                             
  Yang Guo               : DLPNO-NEVPT2, F12-NEVPT2, CIM, IAO-localization        
  Andreas Hansen         : Spin unrestricted coupled pair/coupled cluster methods 
  Ingolf Harden          : AUTO-CI MPn and infrastructure                
  Benjamin Helmich-Paris : MC-RPA, TRAH-(SCF,CASSCF), AVAS, COSX integrals, SCF dyn. polar. 
  Lee Huntington         : MR-EOM, pCC                                   
  Robert Izsak           : Overlap fitted RIJCOSX, COSX-SCS-MP3, EOM     
  Riya Kayal             : Wick's Theorem for AUTO-CI, AUTO-CI UHF-CCSDT 
  Emily Kempfer          : AUTO-CI, RHF CISDT and CCSDT                  
  Christian Kollmar      : KDIIS, OOCD, Brueckner-CCSD(T), CCSD density, CASPT2, CASPT2-K, improved NEVPT2 
  Axel Koslowski         : Symmetry handling                             
  Simone Kossmann        : meta-GGA functionals, TD-DFT gradient, OOMP2, (MP2 Hessian; deprecated post 5.0) 
  Lucas Lang             : DCDCAS                                        
  Marvin Lechner         : AUTO-CI (C++ implementation), FIC-MRCC        
  Spencer Leger          : CASSCF response                               
  Dagmar Lenk            : GEPOL surface, SMD, ORCA-2-JSON               
  Dimitrios Liakos       : Extrapolation schemes; Compound Job, initial MDCI parallelization 
  Dimitrios Manganas     : Further ROCIS development; embedding schemes. LFT, Crystal Embedding 
  Dimitrios Pantazis     : SARC Basis sets                               
  Anastasios Papadopoulos: AUTO-CI, single reference methods and gradients 
  Taras Petrenko         : pre 6.0 DFT Hessian and TD-DFT gradient, (ASA, deprecated), ECA, 1-Electron XAS/XES, NRVS 
  Peter Pinski           : DLPNO-MP2, DLPNO-MP2 Gradient                 
  Christoph Reimann      : Effective Core Potentials                     
  Marius Retegan         : Local ZFS, SOC                                
  Christoph Riplinger    : Optimizer, TS searches, QM/MM, DLPNO-CCSD(T), (RO)-DLPNO pert. Triples 
  Michael Roemelt        : Original ROCIS implementation                 
  Masaaki Saitow         : Open-shell DLPNO-CCSD energy and density      
  Barbara Sandhoefer     : DKH picture change effects                    
  Kantharuban Sivalingam : CASSCF convergence/infrastructure, NEVPT2 and variants, FIC-MRCI 
  Bernardo de Souza      : ESD, SOC TD-DFT                               
  Georgi L. Stoychev     : AutoAux, RI-MP2 NMR, DLPNO-MP2 response, X2C  
  Van Anh Tran           : RI-MP2 g-tensors                              
  Willem Van den Heuvel  : Paramagnetic NMR                              
  Zikuan Wang            : NOTCH, Electric field optimization            
  Frank Wennmohs         : Technical directorship and infrastructure     
  Hang Xu                : AUTO-CI-Response properties                   
                                                                         
[FACCTs GmbH]                                                            
  Markus Bursch, Miquel Garcia-Rates, Christoph Riplinger, Bernardo de Souza, Georgi L. Stoychev 
                                                                 
  APM, Basis sets (HGBS, AHGBS, def-TZVP (Ac-Lr), def2-XVPD (La-Lu)), CI-OPT, improved COSX, DLPNO-Multilevel,           
  DOCKER, DRACO, updates on ESD, GOAT, IRC, LR-CPCM, MBIS, meta-GGA TD-DFT gradient, ML-optimized integration grids, 
  MM, NACMEs, nearIR, NEB, NEB-TS, NL-DFT gradient (VV10), 2- and 3-layer-ONIOM, interface openCOSMO-RS, QMMM,   
  Crystal-QMMM, SF, symmetry and pop. for TD-DFT, r2SCAN hybrids, SOLVATOR                                   
                                                                         
[Other institutions]                                                     
  V. Asgeirsson          : NEB                                           
  Christoph Bannwarth    : sTDA-DFT, sTD-DFT, PBEh-3c, B97-3c, D3        
  Sebastian Ehlert       : rSCAN, r2SCAN, r2SCAN-3c, D4, dhf basis sets  
  Marvin Friede          : D4 for Fr, Ra, Ac-Lr                          
  Lars Goerigk           : TD-DFT with DH, B97 family of functionals     
  Stefan Grimme          : VdW corrections, initial TS optimization, DFT functionals, gCP, sTDA/sTD-DF 
  Waldemar Hujo          : DFT-NL                                        
  H. Jonsson             : NEB                                           
  Holger Kruse           : gCP                                           
  Marcel Mueller         : wB97X-3c, vDZP basis set                      
  Hagen Neugebauer       : wr2SCAN                                       
  Tobias Risthaus        : range-separated hybrid DFT                    
  Lukas Wittmann         : regularized MP2, r2SCAN double-hybrids, wr2SCAN        
                                                                         
We gratefully acknowledge several colleagues who have allowed us to      
interface, adapt or use parts of their codes:                            
  Ed Valeev, F. Pavosevic, A. Kumar             : LibInt (2-el integral package), F12 methods 
  Garnet Chan, S. Sharma, J. Yang, R. Olivares  : DMRG                   
  Ulf Ekstrom                                   : XCFun DFT Library      
  Mihaly Kallay                                 : mrcc  (arbitrary order and MRCC methods)
  Frank Weinhold                                : gennbo (NPA and NBO analysis)           
  Simon Mueller                                 : openCOSMO-RS                            
  Christopher J. Cramer and Donald G. Truhlar   : smd solvation model                     
  S Lehtola, MJT Oliveira, MAL Marques          : LibXC Library                           
  Liviu Ungur et al                             : ANISO software                          


 Your calculation uses the libint2 library for the computation of 2-el integrals
 For citations please refer to: http://libint.valeyev.net

 Your ORCA version has been built with support for libXC version: 6.2.2
 For citations please refer to: https://libxc.gitlab.io

 This ORCA versions uses:
   CBLAS   interface :  Fast vector & matrix operations
   LAPACKE interface :  Fast linear algebra routines
   SCALAPACK package :  Parallel linear algebra routines
   Shared memory     :  Shared parallel matrices
   BLAS/LAPACK       :  OpenBLAS 0.3.27  USE64BITINT DYNAMIC_ARCH NO_AFFINITY Cooperlake SINGLE_THREADED
        Core in use  :  Cooperlake
   Copyright (c) 2011-2014, The OpenBLAS Project


NOTE: MaxCore=36000 MB was set to SCF,MP2,MDCI,CIPSI,MRCI and CIS
      => If you want to overwrite this, your respective input block should be placed after the MaxCore statement
Warning: RI is on but no J-basis has been assigned. Assigning Def2/J (nothing to worry about!)
================================================================================

----- Orbital basis set information -----
Your calculation utilizes the basis: def2-TZVP
   F. Weigend and R. Ahlrichs, Phys. Chem. Chem. Phys. 7, 3297 (2005).

----- AuxJ basis set information -----
Your calculation utilizes the auxiliary basis: def2/J
   F. Weigend, Phys. Chem. Chem. Phys. 8, 1057 (2006).

================================================================================
                                        WARNINGS
                       Please study these warnings very carefully!
================================================================================


WARNING: Geometry optimizations can change the point-group symmetry!


WARNING: your system is open-shell and RHF/RKS was chosen
  ===> : WILL SWITCH to UHF/UKS


WARNING: Geometry Optimization
  ===> : Switching off AutoStart
         For restart on a previous wavefunction, please use MOREAD

================================================================================
                                       INPUT FILE
================================================================================
NAME = SEWMUC-S6.inp
|  1> ! PBE0 def2-TZVP Opt Freq DEFGRID3 UseSym
|  2> 
|  3> %method 
|  4>     SymThresh 1
|  5> end
|  6> 
|  7> %maxcore 36000
|  8> 
|  9> %pal
| 10>     nprocs 16
| 11> end
| 12> 
| 13> *xyz 0 4
| 14> Mn -0.00363411424553 0.00062409358241 -0.00020952607653
| 15> N 1.16211277237177 0.94613147715149 -1.34678593493771
| 16> C 1.80199069036133 1.51838968379532 -2.14533069657298
| 17> S 2.69597910631372 2.2814106170038 -3.25987254127471
| 18> O 0.84765082391375 -1.90775250960521 -0.52617276874689
| 19> O -1.62061893592038 -0.26257205303298 -1.64021315823712
| 20> P 1.81421484333293 -3.04118280217436 -0.42819962052249
| 21> P -2.20182106584969 -1.0210430534116 -2.78849886143165
| 22> C 3.5239692534513 -2.51131827707566 -0.66904101344267
| 23> C 3.74299012375389 -1.3407603062451 -1.39119448675117
| 24> C 5.03736590033679 -0.89367290608489 -1.61533230496807
| 25> C 6.11491150146704 -1.61590232704612 -1.12415152279898
| 26> C 5.9011173905665 -2.78426982253602 -0.40296702424441
| 27> C 4.60963815884543 -3.23090337286415 -0.17101936750284
| 28> C 1.48450318937616 -4.31668137468757 -1.66923971314543
| 29> C 2.42713351204201 -4.70978999740657 -2.61393707621033
| 30> C 2.12117770648849 -5.70504846958866 -3.53233606605056
| 31> C 0.87408121378213 -6.30940517646943 -3.5128851346723
| 32> C -0.075342911847 -5.91387356553012 -2.57897092499714
| 33> C 0.22739299252999 -4.92283531773269 -1.6612440363235
| 34> C 1.74479747699042 -3.90547616577976 1.15452565031754
| 35> C 1.38739712767705 -3.17514068822811 2.28569666315564
| 36> C 1.33060195108214 -3.79994883622129 3.52186369840929
| 37> C 1.63879760684801 -5.14736802413445 3.63687022865441
| 38> C 1.99832077959249 -5.87849308308516 2.51319850265809
| 39> C 2.04601942427836 -5.26214422650242 1.27268613287591
| 40> C -3.13634396391328 -2.4700562654552 -2.25082834894112
| 41> C -2.93811178458532 -2.92408280526381 -0.94982669847466
| 42> C -3.65564205388828 -4.01500479460571 -0.47828982625363
| 43> C -4.56307017074544 -4.65892041243525 -1.30643905632676
| 44> C -4.76842848386824 -4.20522458142801 -2.60361568038989
| 45> C -4.06516398419251 -3.10771731253498 -3.07323346805805
| 46> C -0.96441330449615 -1.55082588368683 -3.992353308589
| 47> C 0.06451379642555 -0.65309690853593 -4.27629427603518
| 48> C 1.0383424316021 -0.97787922175342 -5.20644566122629
| 49> C 0.98927746131451 -2.20089336729443 -5.86122611707662
| 50> C -0.02729135553157 -3.10137843392874 -5.57795286494682
| 51> C -1.00140413518055 -2.78080512127138 -4.64385559894608
| 52> C -3.38876414395166 -0.0080095970965 -3.70727094051612
| 53> C -4.29535125713271 0.75137000344696 -2.96682683169754
| 54> C -5.23296517296055 1.53850824065223 -3.61336166821013
| 55> C -5.27519883353616 1.57418526785363 -5.00115977047297
| 56> C -4.37474622062097 0.824572487833 -5.74216502899129
| 57> C -3.43178041089925 0.03536808858011 -5.09782337539169
| 58> N -1.17432633571575 -0.94352042858193 1.34317522128177
| 59> O -0.85183750369703 1.90852509920881 0.52693421806141
| 60> O 1.61350664998959 0.26037131851492 1.63955786915296
| 61> C -1.80765298559741 -1.51167162897732 2.14975372375696
| 62> P -1.81599665645695 3.04402237846721 0.42857219302908
| 63> P 2.19999281019208 1.01589932470252 2.78709790089725
| 64> S -2.71522869270008 -2.22983886781527 3.28354436855581
| 65> C -3.5260949731731 2.51865361851068 0.67586051145133
| 66> C -1.47911757469396 4.32190492577898 1.6650826891116
| 67> C -1.74973934666161 3.90398908737457 -1.15656117353951
| 68> C 3.14766282143031 2.45587124814336 2.24824515006482
| 69> C 0.9661333812573 1.55979100077077 3.98819442112207
| 70> C 3.37667157204339 -0.00536522804615 3.71007046552642
| 71> C -3.74622098242613 1.35462867524 1.40825074443221
| 72> C -4.61114427979946 3.23577375728045 0.17289655590302
| 73> C -2.41987584688043 4.72449703662219 2.60766820078576
| 74> C -0.21874886760159 4.92125470055362 1.65444858131272
| 75> C -1.40573947086188 3.16803134298307 -2.28825309391057
| 76> C -2.04078929048276 5.26279128588836 -1.27607545746759
| 77> C 2.94911828494674 2.91499549926385 0.94906360636982
| 78> C 4.0854698690224 3.0826796538112 3.06875647207176
| 79> C -0.07357133124874 0.67426174490678 4.2707971036866
| 80> C 1.01686933108615 2.78926374482997 4.63977091220781
| 81> C 4.28369843247114 -0.76762784751792 2.97311812697324
| 82> C 3.41101883679672 -0.05283348915154 5.1007077055988
| 83> C -5.04104878270162 0.91161718666859 1.63755986775091
| 84> C -5.90312117723249 2.79327695222314 0.4100270135873
| 85> C -2.10864478271791 5.72220698037721 3.52161600805393
| 86> C 0.08908649580217 5.91478983964202 2.567761195939
| 87> C -1.35219504141249 3.78938221411033 -3.5262216380317
| 88> C -1.99569185491115 5.87591212120566 -2.51830059441912
| 89> C 3.67532312236004 4.000169539733 0.47746787233095
| 90> C 4.79763034777782 4.17449253631623 2.59914106107833
| 91> C -1.04455850226139 1.010412694424 5.19988079531976
| 92> C 0.04541770781281 3.12129890704535 5.57255262902412
| 93> C 5.2130033539075 -1.56171541713667 3.62309827778666
| 94> C 4.34569133698561 -0.84902355403713 5.74858904709954
| 95> C -6.11796752040002 1.63144651247867 1.14135381177247
| 96> C -0.8582670451665 6.31966732009457 3.49966919759346
| 97> C -1.64959579233309 5.13917905861323 -3.64247110574649
| 98> C 4.59189976109219 4.63332640901297 1.30386528421054
| 99> C -0.9820086076158 2.23277744274731 5.85459806236245
|100> C 5.24651837743253 -1.60150979126758 5.01102225563361
|101> H 1.03023423668292 -3.23325547458844 4.39510482383981
|102> H 1.13974344202287 -2.12488773610854 2.18577879124043
|103> H 1.58732074603822 -5.63367549210182 4.60460525848873
|104> H 2.2281896807194 -6.93443793629411 2.59987052071997
|105> H 2.30103983886833 -5.84318791551307 0.39314316401832
|106> H -0.51697988381215 -4.61678942175881 -0.9345917355851
|107> H 3.40322830952685 -4.23935227769168 -2.63331077287798
|108> H 2.86193697274881 -6.00716140710466 -4.26394599279265
|109> H 0.63873275455848 -7.09037234624726 -4.22753414227375
|110> H -1.05475122052476 -6.37854245967674 -2.56356178466686
|111> H 4.44726195538509 -4.13244289728727 0.40940400124834
|112> H 2.89851965043867 -0.76771029711008 -1.75310112632948
|113> H 5.18927036756649 0.02576751928923 -2.16912345626536
|114> H 7.12643979307523 -1.26541960757426 -1.29699322117166
|115> H 6.74344243300374 -3.34603813053789 -0.01465825445999
|116> H -2.24024921090395 -2.40493187742069 -0.30314160870971
|117> H -3.51211166851254 -4.34106851543519 0.54567684453612
|118> H -5.12699285071826 -5.50786989670929 -0.93596284118853
|119> H -5.49108041652236 -4.69726609226469 -3.24481801093298
|120> H -4.25539355785271 -2.73592912436924 -4.0746835532376
|121> H -1.77983086824745 -3.49808744398687 -4.41221038050846
|122> H -0.0569956386458 -4.06385939186328 -6.07552767337532
|123> H 1.75251773672629 -2.45743342587218 -6.5876484391159
|124> H 1.83834202147097 -0.27255860664095 -5.40053636815404
|125> H 0.12309580645521 0.29110075793845 -3.7491865833289
|126> H -2.72024560198663 -0.53920647545709 -5.68016791847551
|127> H -4.39984705351902 0.85716647098407 -6.82543421131599
|128> H -6.00886015949435 2.19318369705992 -5.50540615884713
|129> H -5.92997718804132 2.12936441569248 -3.03036528101549
|130> H -4.2552677236361 0.73324570920998 -1.8830053657119
|131> H -2.90263741835903 0.78294463219721 1.77442004809854
|132> H -5.19339113338686 -0.00299143080436 2.19918140058135
|133> H -7.12988129394273 1.28414203873279 1.31825473984229
|134> H -6.74494719280188 3.35312716783025 0.01784380432108
|135> H -4.44781766866337 4.13208048177887 -0.41530829274727
|136> H -1.16598064584174 2.11597431504769 -2.18737796194548
|137> H -1.0629307580033 3.2180833909405 -4.40018211343655
|138> H -1.6001314526266 5.62279023463136 -4.61163890334423
|139> H -2.2169671692592 6.93353780565704 -2.60594887975333
|140> H -2.28596095665006 5.84787632108157 -0.39643048331693
|141> H 0.52398368837809 4.60806874063189 0.92901175909732
|142> H 1.07085690959556 6.37407342365925 2.55047194359656
|143> H -0.61879391095038 7.10250994741334 4.21086676542135
|144> H -2.84785445175517 6.03174979537228 4.25158686879136
|145> H -3.39857996123692 4.2595355017801 2.62882534956412
|146> H 4.27551993595542 2.70668002519921 4.06866037047141
|147> H 5.5273061723194 4.6580086186055 3.23887247494804
|148> H 5.16251133918431 5.47782686605543 0.93338242003559
|149> H 3.53104556617534 4.32967272229939 -0.54527519087206
|150> H 2.24417880799833 2.40408132903562 0.30349110346948
|151> H 2.69934987412093 0.52432735660549 5.68028814838626
|152> H 4.25074177920479 -0.74610561758265 1.88914942123017
|153> H 5.91043786836208 -2.15466201795547 3.04273775164594
|154> H 5.97379026701281 -2.22584896049084 5.51795339643021
|155> H 4.36405240380447 -0.88459385984572 6.83189777359422
|156> H -0.14247224416526 -0.26942183158873 3.74405731756132
|157> H -1.85269249695973 0.31417255271117 5.39304098545051
|158> H -1.74306332428425 2.49826864244605 6.58005226875966
|159> H 0.08570670438647 4.0834158331482 6.07008401689075
|160> H 1.80414353128246 3.49721076406903 4.4092204430761
|161> *
|162> 
|163>                          ****END OF INPUT****
================================================================================
-----------------------
SYMMETRY HANDLING SETUP
-----------------------

WARNING (ORCA/SYM): Unexpected number of nearest neighbors (59) in function
TPolytope::CenteredPolyhedron().

WARNING (ORCA/SYM): Unexpected number of nearest neighbors (73) in function
TPolytope::CenteredPolyhedron().

WARNING (ORCA/SYM): None of the atom subsets could be assigned a point group.
Please take all warnings, especially the ORCA/SYM warnings, very seriously!!!

WARNING (ORCA/SYM): An inconsistency has occured during symmetry recognition.
Using Ci as a fallback. If this point group appears to be too low, please try
increasing the cleaning tolerance using option SymThresh in the %Symmetry input
block. If the problem persists, you may post a message in the ORCA forum.

Auto-detected point group .... Ci
Reduced point group       .... Ci
Root mean square distance .... 0.025569535250339 au
Maximum distance          .... 0.054185647325152 au
Threshold in use          .... 1.000000000000000 au
Time for symmetry setup   .... 0.004 s


Symmetry-perfected Cartesians for point group Ci:

Index  Symbol        Symmetry-perfected Cartesians (x, y, z; au)
   0     Mn      0.0000000000000    0.0000000000000    0.0000000000000
   1     N       2.2076150214343    1.7854622951393   -2.5416449480705
   2     C       3.4106189943014    2.8629930250651   -4.0582666382477
   3     S       5.1128503969374    4.2625130240507   -6.1826329698245
   4     O       1.6057837534901   -3.6058597658372   -0.9950418973934
   5     O      -3.0558058200387   -0.4941098778875   -3.0989345118684
   6     P       3.4300527714072   -5.7496856300657   -0.8095320434378
   7     P      -4.1591113591067   -1.9246316226070   -5.2681754569898
   8     C       6.6613453074377   -4.7526346719895   -1.2707477795714
   9     C       7.0762789749008   -2.5467734996979   -2.6450924069242
  10     C       9.5227218075167   -1.7057519337927   -3.0735376748075
  11     C      11.5583955903596   -3.0682999840044   -2.1405923186388
  12     C      11.1533890563055   -5.2700179517153   -0.7681680400064
  13     C       8.7123767747547   -6.1101243862326   -0.3249534541659
  14     C       2.8002158044475   -8.1622811460629   -3.1504780912321
  15     C       4.5797601284583   -8.9141093815593   -4.9337019764803
  16     C       3.9966030498506  -10.7971916313973   -6.6650187909316
  17     C       1.6368318889941  -11.9327441719715   -6.6259035936126
  18     C      -0.1553632744099  -11.1764671830559   -4.8629570966125
  19     C       0.4215429662634   -9.3013170861145   -3.1328754957985
  20     C       3.3018587808027   -7.3788752904178    2.1836605844019
  21     C       2.6391316129355   -5.9934289796691    4.3217561955854
  22     C       2.5348757943612   -7.1708786123958    6.6594755271898
  23     C       3.1070814725233   -9.7193784250399    6.8779807786753
  24     C       3.7737950273166  -11.1063033516242    4.7540776682740
  25     C       3.8614746163106   -9.9446228478004    2.4082306932034
  26     C      -5.9375259240011   -4.6543269781245   -4.2510083847520
  27     C      -5.5626262594009   -5.5171294350393   -1.7941913172572
  28     C      -6.9267582402115   -7.5732422037674   -0.9030601503559
  29     C      -8.6501929677284   -8.7799008306687   -2.4663801649007
  30     C      -9.0386156863949   -7.9176852161343   -4.9158926913937
  31     C      -7.7012329002217   -5.8490774633256   -5.8033394520724
  32     C      -1.8241022624117   -2.9391070095881   -7.5405248039205
  33     C       0.1304715372360   -1.2541721682486   -8.0758309746366
  34     C       1.9680561645454   -1.8786635979324   -9.8325535315256
  35     C       1.8625954009462   -4.1892117994698  -11.0698495661563
  36     C      -0.0687001085874   -5.8795779970992  -10.5357008191947
  37     C      -1.9069920573020   -5.2629523520064   -8.7717558178458
  38     C      -6.3924103399400   -0.0024985666511   -7.0083719496074
  39     C      -8.1060272013267    1.4352449681693   -5.6124346112270
  40     C      -9.8700098596707    2.9292868335623   -6.8374637385123
  41     C      -9.9415819936483    3.0005969732930   -9.4601410161551
  42     C      -8.2396193759188    1.5813190889746  -10.8571891380255
  43     C      -6.4655082837739    0.0833384132463   -9.6362153556779
  44     N      -2.2076150214343   -1.7854622951393    2.5416449480705
  45     O      -1.6057837534901    3.6058597658372    0.9950418973934
  46     O       3.0558058200387    0.4941098778875    3.0989345118684
  47     C      -3.4106189943014   -2.8629930250651    4.0582666382477
  48     P      -3.4300527714072    5.7496856300657    0.8095320434378
  49     P       4.1591113591067    1.9246316226070    5.2681754569898
  50     S      -5.1128503969374   -4.2625130240507    6.1826329698245
  51     C      -6.6613453074377    4.7526346719895    1.2707477795714
  52     C      -2.8002158044475    8.1622811460629    3.1504780912321
  53     C      -3.3018587808027    7.3788752904178   -2.1836605844019
  54     C       5.9375259240011    4.6543269781245    4.2510083847520
  55     C       1.8241022624117    2.9391070095881    7.5405248039205
  56     C       6.3924103399400    0.0024985666511    7.0083719496074
  57     C      -7.0762789749008    2.5467734996979    2.6450924069242
  58     C      -8.7123767747547    6.1101243862326    0.3249534541659
  59     C      -4.5797601284583    8.9141093815593    4.9337019764803
  60     C      -0.4215429662634    9.3013170861145    3.1328754957985
  61     C      -2.6391316129355    5.9934289796691   -4.3217561955854
  62     C      -3.8614746163106    9.9446228478004   -2.4082306932034
  63     C       5.5626262594009    5.5171294350393    1.7941913172572
  64     C       7.7012329002217    5.8490774633256    5.8033394520724
  65     C      -0.1304715372360    1.2541721682486    8.0758309746366
  66     C       1.9069920573020    5.2629523520064    8.7717558178458
  67     C       8.1060272013267   -1.4352449681693    5.6124346112270
  68     C       6.4655082837739   -0.0833384132463    9.6362153556779
  69     C      -9.5227218075167    1.7057519337927    3.0735376748075
  70     C     -11.1533890563055    5.2700179517153    0.7681680400064
  71     C      -3.9966030498506   10.7971916313973    6.6650187909316
  72     C       0.1553632744099   11.1764671830559    4.8629570966125
  73     C      -2.5348757943612    7.1708786123958   -6.6594755271898
  74     C      -3.7737950273166   11.1063033516242   -4.7540776682740
  75     C       6.9267582402115    7.5732422037674    0.9030601503559
  76     C       9.0386156863949    7.9176852161343    4.9158926913937
  77     C      -1.9680561645454    1.8786635979324    9.8325535315256
  78     C       0.0687001085874    5.8795779970992   10.5357008191947
  79     C       9.8700098596707   -2.9292868335623    6.8374637385123
  80     C       8.2396193759188   -1.5813190889746   10.8571891380255
  81     C     -11.5583955903596    3.0682999840044    2.1405923186388
  82     C      -1.6368318889941   11.9327441719715    6.6259035936126
  83     C      -3.1070814725233    9.7193784250399   -6.8779807786753
  84     C       8.6501929677284    8.7799008306687    2.4663801649007
  85     C      -1.8625954009462    4.1892117994698   11.0698495661563
  86     C       9.9415819936483   -3.0005969732930    9.4601410161551
  87     H       1.9777542965338   -6.0956318264860    8.3103417903537
  88     H       2.1785935332247   -4.0070339242124    4.1320343021148
  89     H       3.0117058602208  -10.6358187296983    8.7080887246075
  90     H       4.2000645343918  -13.1033380920755    4.9187864847743
  91     H       4.3340876398043  -11.0464548106225    0.7460389780125
  92     H      -0.9835680334140   -8.7162277755932   -1.7608501135842
  93     H       6.4267774235920   -8.0302851730659   -4.9719980754149
  94     H       5.3949710370623  -11.3751225616390   -8.0460124964003
  95     H       1.1881905019575  -13.4103302929993   -7.9731333618881
  96     H      -2.0084086169819  -12.0494757552996   -4.8320615930271
  97     H       8.4046322144374   -7.8088429069122    0.7792401874648
  98     H       5.4812990599445   -1.4651565723029   -3.3330244756386
  99     H       9.8101933890048    0.0271732697880   -4.1274499244592
 100     H      13.4702712658552   -2.4089866365349   -2.4710512093062
 101     H      12.7446811901986   -6.3297938698923   -0.0307099949424
 102     H      -4.2371704115042   -4.5438589673065   -0.5731848449483
 103     H      -6.6548191458531   -8.1926631587079    1.0308002860827
 104     H      -9.7221724863756  -10.3799791359653   -1.7662752967285
 105     H     -10.4108665452909   -8.8394535555720   -6.1261996777130
 106     H      -8.0605450877353   -5.1425203733292   -7.6943449150709
 107     H      -3.3863650430482   -6.6095989191679   -8.3350441829531
 108     H      -0.1348341734999   -7.6980594564767  -11.4759399117776
 109     H       3.3028454421159   -4.6824598552143  -12.4416740756629
 110     H       3.4875221953420   -0.5543806027068  -10.1984526018036
 111     H       0.2509254427960    0.5296170930414   -7.0800894136791
 112     H      -5.1207756032409   -1.0048938383790  -10.7340753614065
 113     H      -8.2806849197812    1.6457250080982  -12.9043085857617
 114     H     -11.3219638323066    4.1753807498126  -10.4155653176091
 115     H     -11.1875708842801    4.0478183550370   -5.7382507574084
 116     H      -8.0370142264505    1.3977844317456   -3.5641697410403
 117     H      -5.4812990599445    1.4651565723029    3.3330244756386
 118     H      -9.8101933890048   -0.0271732697880    4.1274499244592
 119     H     -13.4702712658552    2.4089866365349    2.4710512093062
 120     H     -12.7446811901986    6.3297938698923    0.0307099949424
 121     H      -8.4046322144374    7.8088429069122   -0.7792401874648
 122     H      -2.1785935332247    4.0070339242124   -4.1320343021148
 123     H      -1.9777542965338    6.0956318264860   -8.3103417903537
 124     H      -3.0117058602208   10.6358187296983   -8.7080887246075
 125     H      -4.2000645343918   13.1033380920755   -4.9187864847743
 126     H      -4.3340876398043   11.0464548106225   -0.7460389780125
 127     H       0.9835680334140    8.7162277755932    1.7608501135842
 128     H       2.0084086169819   12.0494757552996    4.8320615930271
 129     H      -1.1881905019575   13.4103302929993    7.9731333618881
 130     H      -5.3949710370623   11.3751225616390    8.0460124964003
 131     H      -6.4267774235920    8.0302851730659    4.9719980754149
 132     H       8.0605450877353    5.1425203733292    7.6943449150709
 133     H      10.4108665452909    8.8394535555720    6.1261996777130
 134     H       9.7221724863756   10.3799791359653    1.7662752967285
 135     H       6.6548191458531    8.1926631587079   -1.0308002860827
 136     H       4.2371704115042    4.5438589673065    0.5731848449483
 137     H       5.1207756032409    1.0048938383790   10.7340753614065
 138     H       8.0370142264505   -1.3977844317456    3.5641697410403
 139     H      11.1875708842801   -4.0478183550370    5.7382507574084
 140     H      11.3219638323066   -4.1753807498126   10.4155653176091
 141     H       8.2806849197812   -1.6457250080982   12.9043085857617
 142     H      -0.2509254427960   -0.5296170930414    7.0800894136791
 143     H      -3.4875221953420    0.5543806027068   10.1984526018036
 144     H      -3.3028454421159    4.6824598552143   12.4416740756629
 145     H       0.1348341734999    7.6980594564767   11.4759399117776
 146     H       3.3863650430482    6.6095989191679    8.3350441829531

Index  Symbol        Symmetry-perfected Cartesians (x, y, z; Ang)
   0     Mn      0.0000000000000    0.0000000000000    0.0000000000000
   1     N       1.1682195540438    0.9448259528667   -1.3449805781097
   2     C       1.8048218379794    1.5150306563863   -2.1475422101650
   3     S       2.7056038995069    2.2556247424095   -3.2717084549153
   4     O       0.8497441638054   -1.9081388044070   -0.5265534934042
   5     O      -1.6170627929550   -0.2614716857739   -1.6398855136950
   6     P       1.8151057498949   -3.0426025903208   -0.4283859067758
   7     P      -2.2009069380209   -1.0184711890571   -2.7877983811644
   8     C       3.5250321133122   -2.5149859477932   -0.6724507624470
   9     C       3.7446055530900   -1.3476944907426   -1.3997226155917
  10     C       5.0392073415192   -0.9026450463767   -1.6264460863595
  11     C       6.1164395109335   -1.6236744197624   -1.1327526672857
  12     C       5.9021192838995   -2.7887733873796   -0.4064970189159
  13     C       4.6103912193224   -3.2333385650723   -0.1719579617029
  14     C       1.4818103820351   -4.3192931502333   -1.6671612011285
  15     C       2.4235046794612   -4.7171435170144   -2.6108026384980
  16     C       2.1149112446032   -5.7136277249829   -3.5269760370522
  17     C       0.8661741294743   -6.3145362482820   -3.5062771661329
  18     C      -0.0822147038246   -5.9143317025861   -2.5733660604681
  19     C       0.2230709300658   -4.9220450091432   -1.6578463088181
  20     C       1.7472684118260   -3.9047326265772    1.1555434119285
  21     C       1.3965682992695   -3.1715860156056    2.2869748785331
  22     C       1.3413984962473   -3.7946655251658    3.5240426682205
  23     C       1.6441966995905   -5.1432735413738    3.6396706672004
  24     C       1.9970063172518   -5.8772026021454    2.5157495485386
  25     C       2.0434043573806   -5.2624677561954    1.2743807951718
  26     C      -3.1420033926718   -2.4629637567993   -2.2495367495030
  27     C      -2.9436150347660   -2.9195391522638   -0.9494451524222
  28     C      -3.6654825881242   -4.0075871671694   -0.4778788492923
  29     C      -4.5774849659188   -4.6461234107241   -1.3051521702686
  30     C      -4.7830294158230   -4.1898585588721   -2.6013783707341
  31     C      -4.0753169266075   -3.0951984831731   -3.0709949700649
  32     C      -0.9652733428767   -1.5553084422288   -3.9902738648555
  33     C       0.0690425638371   -0.6636793267214   -4.2735456898609
  34     C       1.0414504669317   -0.9941459580887   -5.2031632282730
  35     C       0.9856430344652   -2.2168354050209   -5.8579120897195
  36     C      -0.0363545316722   -3.1113386704870   -5.5752527469855
  37     C      -1.0091367331334   -2.7850344330507   -4.6418132555769
  38     C      -3.3827178579975   -0.0013221845252   -3.7086707030213
  39     C      -4.2895248448019    0.7594989254824   -2.9699724793354
  40     C      -5.2229842634340    1.5501118288944   -3.6182299729984
  41     C      -5.2608586054843    1.5878475295606   -5.0060910130533
  42     C      -4.3602187788033    0.8367980209351   -5.7453770380454
  43     C      -3.4213996238480    0.0441007888658   -5.0992655404952
  44     N      -1.1682195540438   -0.9448259528667    1.3449805781097
  45     O      -0.8497441638054    1.9081388044070    0.5265534934042
  46     O       1.6170627929550    0.2614716857739    1.6398855136950
  47     C      -1.8048218379794   -1.5150306563863    2.1475422101650
  48     P      -1.8151057498949    3.0426025903208    0.4283859067758
  49     P       2.2009069380209    1.0184711890571    2.7877983811644
  50     S      -2.7056038995069   -2.2556247424095    3.2717084549153
  51     C      -3.5250321133122    2.5149859477932    0.6724507624470
  52     C      -1.4818103820351    4.3192931502333    1.6671612011285
  53     C      -1.7472684118260    3.9047326265772   -1.1555434119285
  54     C       3.1420033926718    2.4629637567993    2.2495367495030
  55     C       0.9652733428767    1.5553084422288    3.9902738648555
  56     C       3.3827178579975    0.0013221845252    3.7086707030213
  57     C      -3.7446055530900    1.3476944907426    1.3997226155917
  58     C      -4.6103912193224    3.2333385650723    0.1719579617029
  59     C      -2.4235046794612    4.7171435170144    2.6108026384980
  60     C      -0.2230709300658    4.9220450091432    1.6578463088181
  61     C      -1.3965682992695    3.1715860156056   -2.2869748785331
  62     C      -2.0434043573806    5.2624677561954   -1.2743807951718
  63     C       2.9436150347660    2.9195391522638    0.9494451524222
  64     C       4.0753169266075    3.0951984831731    3.0709949700649
  65     C      -0.0690425638371    0.6636793267214    4.2735456898609
  66     C       1.0091367331334    2.7850344330507    4.6418132555769
  67     C       4.2895248448019   -0.7594989254824    2.9699724793354
  68     C       3.4213996238480   -0.0441007888658    5.0992655404952
  69     C      -5.0392073415192    0.9026450463767    1.6264460863595
  70     C      -5.9021192838995    2.7887733873796    0.4064970189159
  71     C      -2.1149112446032    5.7136277249829    3.5269760370522
  72     C       0.0822147038246    5.9143317025861    2.5733660604681
  73     C      -1.3413984962473    3.7946655251658   -3.5240426682205
  74     C      -1.9970063172518    5.8772026021454   -2.5157495485386
  75     C       3.6654825881242    4.0075871671694    0.4778788492923
  76     C       4.7830294158230    4.1898585588721    2.6013783707341
  77     C      -1.0414504669317    0.9941459580887    5.2031632282730
  78     C       0.0363545316722    3.1113386704870    5.5752527469855
  79     C       5.2229842634340   -1.5501118288944    3.6182299729984
  80     C       4.3602187788033   -0.8367980209351    5.7453770380454
  81     C      -6.1164395109335    1.6236744197624    1.1327526672857
  82     C      -0.8661741294743    6.3145362482820    3.5062771661329
  83     C      -1.6441966995905    5.1432735413738   -3.6396706672004
  84     C       4.5774849659188    4.6461234107241    1.3051521702686
  85     C      -0.9856430344652    2.2168354050209    5.8579120897195
  86     C       5.2608586054843   -1.5878475295606    5.0060910130533
  87     H       1.0465824973431   -3.2256694327645    4.3976434686382
  88     H       1.1528620439323   -2.1204310255781    2.1865783765930
  89     H       1.5937260993324   -5.6282328633666    4.6081220809165
  90     H       2.2225784249893   -6.9339878709756    2.6029097002366
  91     H       2.2935003977592   -5.8455321182973    0.3947868236676
  92     H      -0.5204817860951   -4.6124290811953   -0.9318017473412
  93     H       3.4009041353819   -4.2494438897359   -2.6310680612210
  94     H       2.8548957122520   -6.0194556012385   -4.2577664307920
  95     H       0.6287633327544   -7.0964411468303   -4.2192004538475
  96     H      -1.0628040650602   -6.3763079416680   -2.5570168641317
  97     H       4.4475398120242   -4.1322616895331    0.4123561469978
  98     H       2.9005785343988   -0.7753274646536   -1.7637605872140
  99     H       5.1913307504767    0.0143794750468   -2.1841524284234
 100     H       7.1281605435090   -1.2747808231535   -1.3076239805070
 101     H       6.7441948129028   -3.3495826491841   -0.0162510293905
 102     H      -2.2422140094511   -2.4045066032282   -0.3033163560896
 103     H      -3.5215786173439   -4.3353706188673    0.5454760177041
 104     H      -5.1447520949513   -5.4928483813824   -0.9346726306121
 105     H      -5.5091932944209   -4.6776373554351   -3.2418452429405
 106     H      -4.2654567469041   -2.7213045747842   -4.0716719618545
 107     H      -1.7919871997650   -3.4976491040280   -4.4107154117923
 108     H      -0.0713511715161   -4.0736376125057   -6.0728058451330
 109     H       1.7477905305053   -2.4778510341591   -6.5838503539378
 110     H       1.8455172592153   -0.2933655796761   -5.3967886768023
 111     H       0.1327840253102    0.2802612947636   -3.7466219504451
 112     H      -2.7097977380538   -0.5317669160313   -5.6802280334309
 113     H      -4.3819497286617    0.8708801654149   -6.8286659924551
 114     H      -5.9913252132536    2.2095163287754   -5.5116797776387
 115     H      -5.9202075282017    2.1420132168240   -3.0365515163307
 116     H      -4.2530047514204    0.7396756633963   -1.8860773934710
 117     H      -2.9005785343988    0.7753274646536    1.7637605872140
 118     H      -5.1913307504767   -0.0143794750468    2.1841524284234
 119     H      -7.1281605435090    1.2747808231535    1.3076239805070
 120     H      -6.7441948129028    3.3495826491841    0.0162510293905
 121     H      -4.4475398120242    4.1322616895331   -0.4123561469978
 122     H      -1.1528620439323    2.1204310255781   -2.1865783765930
 123     H      -1.0465824973431    3.2256694327645   -4.3976434686382
 124     H      -1.5937260993324    5.6282328633666   -4.6081220809165
 125     H      -2.2225784249893    6.9339878709756   -2.6029097002366
 126     H      -2.2935003977592    5.8455321182973   -0.3947868236676
 127     H       0.5204817860951    4.6124290811953    0.9318017473412
 128     H       1.0628040650602    6.3763079416680    2.5570168641317
 129     H      -0.6287633327544    7.0964411468303    4.2192004538475
 130     H      -2.8548957122520    6.0194556012385    4.2577664307920
 131     H      -3.4009041353819    4.2494438897359    2.6310680612210
 132     H       4.2654567469041    2.7213045747842    4.0716719618545
 133     H       5.5091932944209    4.6776373554351    3.2418452429405
 134     H       5.1447520949513    5.4928483813824    0.9346726306121
 135     H       3.5215786173439    4.3353706188673   -0.5454760177041
 136     H       2.2422140094511    2.4045066032282    0.3033163560896
 137     H       2.7097977380538    0.5317669160313    5.6802280334309
 138     H       4.2530047514204   -0.7396756633963    1.8860773934710
 139     H       5.9202075282017   -2.1420132168240    3.0365515163307
 140     H       5.9913252132536   -2.2095163287754    5.5116797776387
 141     H       4.3819497286617   -0.8708801654149    6.8286659924551
 142     H      -0.1327840253102   -0.2802612947636    3.7466219504451
 143     H      -1.8455172592153    0.2933655796761    5.3967886768023
 144     H      -1.7477905305053    2.4778510341591    6.5838503539378
 145     H       0.0713511715161    4.0736376125057    6.0728058451330
 146     H       1.7919871997650    3.4976491040280    4.4107154117923

                       *****************************
                       * Geometry Optimization Run *
                       *****************************

Geometry optimization settings:
Update method            Update   .... BFGS
Choice of coordinates    CoordSys .... (2022) Redundant Internals
Initial Hessian          InHess   .... Almloef's Model
Max. no of cycles        MaxIter  .... 441
Use symmetry                      .... yes
Preserve point group              .... no
Clean up coordinates              .... yes
Clean up gradient                 .... no

Convergence Tolerances:
Energy Change            TolE     ....  5.0000e-06 Eh
Max. Gradient            TolMAXG  ....  3.0000e-04 Eh/bohr
RMS Gradient             TolRMSG  ....  1.0000e-04 Eh/bohr
Max. Displacement        TolMAXD  ....  4.0000e-03 bohr
RMS Displacement         TolRMSD  ....  2.0000e-03 bohr
Strict Convergence                .... False

------------------------------------------------------------------------------
                        ORCA OPTIMIZATION COORDINATE SETUP
------------------------------------------------------------------------------

The optimization will be done in redundant internal coordinates (2022)
Making redundant internal coordinates   ...  (2022 redundants) done
Evaluating the initial hessian          ...  (Almloef) done
Evaluating the coordinates              ...  done
Calculating the B-matrix                .... done
Calculating the G-matrix                .... done
Diagonalizing the G-matrix              .... done
Small eigenvalue found = 1.333e-03
Small eigenvalue found = 1.564e-03
Small eigenvalue found = 1.942e-03
Small eigenvalue found = 2.634e-03
Small eigenvalue found = 2.797e-03
Small eigenvalue found = 3.555e-03
Small eigenvalue found = 3.556e-03
Small eigenvalue found = 5.681e-03
Small eigenvalue found = 6.463e-03
Small eigenvalue found = 6.627e-03
Small eigenvalue found = 6.958e-03
Small eigenvalue found = 8.568e-03
Small eigenvalue found = 8.574e-03
Small eigenvalue found = 1.087e-02
Small eigenvalue found = 1.099e-02
Small eigenvalue found = 1.183e-02
Small eigenvalue found = 1.198e-02
Small eigenvalue found = 1.273e-02
Small eigenvalue found = 1.451e-02
Small eigenvalue found = 1.481e-02
Small eigenvalue found = 1.598e-02
Small eigenvalue found = 1.758e-02
Small eigenvalue found = 1.940e-02
Small eigenvalue found = 2.028e-02
Small eigenvalue found = 2.260e-02
Small eigenvalue found = 2.294e-02
Small eigenvalue found = 2.324e-02
Small eigenvalue found = 2.513e-02
Small eigenvalue found = 2.667e-02
Small eigenvalue found = 2.880e-02
The first mode is                       ....  377
The number of degrees of freedom        ....  435

    -----------------------------------------------------------------
                    Redundant Internal Coordinates


    -----------------------------------------------------------------
         Definition                    Initial Value    Approx d2E/dq
    -----------------------------------------------------------------
      1. B(N   1,Mn  0)                  2.0165         0.566770   
      2. B(C   2,N   1)                  1.1724         1.244676   
      3. B(S   3,C   2)                  1.6198         0.724322   
      4. B(O   4,Mn  0)                  2.1541         0.341873   
      5. B(O   5,Mn  0)                  2.3179         0.187351   
      6. B(P   6,O   4)                  1.4928         1.289129   
      7. B(P   7,O   5)                  1.4939         1.284289   
      8. B(C   8,P   6)                  1.8060         0.455471   
      9. B(C   9,C   8)                  1.3927         0.618554   
     10. B(C  10,C   9)                  1.3876         0.630302   
     11. B(C  11,C  10)                  1.3871         0.631489   
     12. B(C  12,C  11)                  1.3895         0.625841   
     13. B(C  13,C  12)                  1.3861         0.633867   
     14. B(C  13,C   8)                  1.3945         0.614635   
     15. B(C  14,P   6)                  1.8099         0.449133   
     16. B(C  15,C  14)                  1.3912         0.621970   
     17. B(C  16,C  15)                  1.3884         0.628538   
     18. B(C  17,C  16)                  1.3860         0.634156   
     19. B(C  18,C  17)                  1.3892         0.626593   
     20. B(C  19,C  18)                  1.3842         0.638253   
     21. B(C  19,C  14)                  1.3956         0.611976   
     22. B(C  20,P   6)                  1.8046         0.457837   
     23. B(C  21,C  20)                  1.3931         0.617800   
     24. B(C  22,C  21)                  1.3862         0.633531   
     25. B(C  23,C  22)                  1.3870         0.631694   
     26. B(C  24,C  23)                  1.3879         0.629586   
     27. B(C  25,C  24)                  1.3860         0.634002   
     28. B(C  25,C  20)                  1.3947         0.614040   
     29. B(C  26,P   7)                  1.8061         0.455401   
     30. B(C  27,C  26)                  1.3921         0.619901   
     31. B(C  28,C  27)                  1.3883         0.628761   
     32. B(C  29,C  28)                  1.3870         0.631646   
     33. B(C  30,C  29)                  1.3895         0.626013   
     34. B(C  31,C  30)                  1.3855         0.635154   
     35. B(C  31,C  26)                  1.3948         0.613778   
     36. B(C  32,P   7)                  1.8058         0.455871   
     37. B(C  33,C  32)                  1.3947         0.614209   
     38. B(C  34,C  33)                  1.3853         0.635747   
     39. B(C  35,C  34)                  1.3881         0.629207   
     40. B(C  36,C  35)                  1.3873         0.631100   
     41. B(C  37,C  36)                  1.3871         0.631453   
     42. B(C  37,C  32)                  1.3924         0.619413   
     43. B(C  38,P   7)                  1.8109         0.447456   
     44. B(C  39,C  38)                  1.3953         0.612781   
     45. B(C  40,C  39)                  1.3844         0.637707   
     46. B(C  41,C  40)                  1.3889         0.627348   
     47. B(C  42,C  41)                  1.3863         0.633394   
     48. B(C  43,C  42)                  1.3882         0.628849   
     49. B(C  43,C  38)                  1.3919         0.620510   
     50. B(N  44,Mn  0)                  2.0165         0.566770   
     51. B(O  45,Mn  0)                  2.1541         0.341873   
     52. B(O  46,Mn  0)                  2.3179         0.187351   
     53. B(C  47,N  44)                  1.1724         1.244676   
     54. B(P  48,O  45)                  1.4928         1.289129   
     55. B(P  49,O  46)                  1.4939         1.284289   
     56. B(S  50,C  47)                  1.6198         0.724322   
     57. B(C  51,P  48)                  1.8060         0.455471   
     58. B(C  52,P  48)                  1.8099         0.449133   
     59. B(C  53,P  48)                  1.8046         0.457837   
     60. B(C  54,P  49)                  1.8061         0.455401   
     61. B(C  55,P  49)                  1.8058         0.455871   
     62. B(C  56,P  49)                  1.8109         0.447456   
     63. B(C  57,C  51)                  1.3927         0.618554   
     64. B(C  58,C  51)                  1.3945         0.614635   
     65. B(C  59,C  52)                  1.3912         0.621970   
     66. B(C  60,C  52)                  1.3956         0.611976   
     67. B(C  61,C  53)                  1.3931         0.617800   
     68. B(C  62,C  53)                  1.3947         0.614040   
     69. B(C  63,C  54)                  1.3921         0.619901   
     70. B(C  64,C  54)                  1.3948         0.613778   
     71. B(C  65,C  55)                  1.3947         0.614209   
     72. B(C  66,C  55)                  1.3924         0.619413   
     73. B(C  67,C  56)                  1.3953         0.612781   
     74. B(C  68,C  56)                  1.3919         0.620510   
     75. B(C  69,C  57)                  1.3876         0.630302   
     76. B(C  70,C  58)                  1.3861         0.633867   
     77. B(C  71,C  59)                  1.3884         0.628538   
     78. B(C  72,C  60)                  1.3842         0.638253   
     79. B(C  73,C  61)                  1.3862         0.633531   
     80. B(C  74,C  62)                  1.3860         0.634002   
     81. B(C  75,C  63)                  1.3883         0.628761   
     82. B(C  76,C  64)                  1.3855         0.635154   
     83. B(C  77,C  65)                  1.3853         0.635747   
     84. B(C  78,C  66)                  1.3871         0.631453   
     85. B(C  79,C  67)                  1.3844         0.637707   
     86. B(C  80,C  68)                  1.3882         0.628849   
     87. B(C  81,C  70)                  1.3895         0.625841   
     88. B(C  81,C  69)                  1.3871         0.631489   
     89. B(C  82,C  72)                  1.3892         0.626593   
     90. B(C  82,C  71)                  1.3860         0.634156   
     91. B(C  83,C  74)                  1.3879         0.629586   
     92. B(C  83,C  73)                  1.3870         0.631694   
     93. B(C  84,C  76)                  1.3895         0.626013   
     94. B(C  84,C  75)                  1.3870         0.631646   
     95. B(C  85,C  78)                  1.3873         0.631100   
     96. B(C  85,C  77)                  1.3881         0.629207   
     97. B(C  86,C  80)                  1.3863         0.633394   
     98. B(C  86,C  79)                  1.3889         0.627348   
     99. B(H  87,C  22)                  1.0834         0.368878   
    100. B(H  88,C  21)                  1.0837         0.368535   
    101. B(H  89,C  23)                  1.0843         0.367767   
    102. B(H  90,C  24)                  1.0841         0.367989   
    103. B(H  91,C  25)                  1.0845         0.367414   
    104. B(H  92,C  19)                  1.0844         0.367616   
    105. B(H  93,C  15)                  1.0837         0.368495   
    106. B(H  94,C  16)                  1.0840         0.368059   
    107. B(H  95,C  17)                  1.0844         0.367538   
    108. B(H  96,C  18)                  1.0841         0.368008   
    109. B(H  97,C  13)                  1.0844         0.367533   
    110. B(H  98,C   9)                  1.0828         0.369718   
    111. B(H  99,C  10)                  1.0840         0.368091   
    112. B(H 100,C  11)                  1.0844         0.367608   
    113. B(H 101,C  12)                  1.0844         0.367605   
    114. B(H 102,C  27)                  1.0838         0.368345   
    115. B(H 103,C  28)                  1.0842         0.367907   
    116. B(H 103,H  92)                  3.3564         0.000017   
    117. B(H 104,C  29)                  1.0844         0.367543   
    118. B(H 105,C  30)                  1.0842         0.367886   
    119. B(H 106,C  31)                  1.0850         0.366726   
    120. B(H 107,C  37)                  1.0836         0.368734   
    121. B(H 107,H  96)                  3.5007         0.000010   
    122. B(H 108,C  36)                  1.0839         0.368283   
    123. B(H 109,C  35)                  1.0844         0.367547   
    124. B(H 110,C  34)                  1.0840         0.368093   
    125. B(H 110,H  98)                  3.8137         0.000003   
    126. B(H 111,C  33)                  1.0829         0.369576   
    127. B(H 112,C  43)                  1.0842         0.367837   
    128. B(H 113,C  42)                  1.0840         0.368067   
    129. B(H 114,C  41)                  1.0843         0.367740   
    130. B(H 115,C  40)                  1.0839         0.368274   
    131. B(H 116,C  39)                  1.0847         0.367192   
    132. B(H 117,C  57)                  1.0828         0.369718   
    133. B(H 118,H 102)                  4.5384         0.000000   
    134. B(H 118,C  69)                  1.0840         0.368091   
    135. B(H 119,C  81)                  1.0844         0.367608   
    136. B(H 120,H 115)                  3.3848         0.000015   
    137. B(H 120,C  70)                  1.0844         0.367605   
    138. B(H 121,C  58)                  1.0844         0.367533   
    139. B(H 122,C  61)                  1.0837         0.368535   
    140. B(H 123,H 111)                  3.2389         0.000026   
    141. B(H 123,C  73)                  1.0834         0.368878   
    142. B(H 124,C  83)                  1.0843         0.367767   
    143. B(H 125,C  74)                  1.0841         0.367989   
    144. B(H 126,C  62)                  1.0845         0.367414   
    145. B(H 127,C  60)                  1.0844         0.367616   
    146. B(H 128,C  72)                  1.0841         0.368008   
    147. B(H 129,C  82)                  1.0844         0.367538   
    148. B(H 130,C  71)                  1.0840         0.368059   
    149. B(H 131,C  59)                  1.0837         0.368495   
    150. B(H 132,C  64)                  1.0850         0.366726   
    151. B(H 133,C  76)                  1.0842         0.367886   
    152. B(H 134,C  84)                  1.0844         0.367543   
    153. B(H 135,H 127)                  3.3564         0.000017   
    154. B(H 135,C  75)                  1.0842         0.367907   
    155. B(H 136,H  99)                  4.5384         0.000000   
    156. B(H 136,C  63)                  1.0838         0.368345   
    157. B(H 137,C  68)                  1.0842         0.367837   
    158. B(H 138,C  67)                  1.0847         0.367192   
    159. B(H 139,H 101)                  3.3848         0.000015   
    160. B(H 139,C  79)                  1.0839         0.368274   
    161. B(H 140,C  86)                  1.0843         0.367740   
    162. B(H 141,C  80)                  1.0840         0.368067   
    163. B(H 142,H  87)                  3.2389         0.000026   
    164. B(H 142,C  65)                  1.0829         0.369576   
    165. B(H 143,H 117)                  3.8137         0.000003   
    166. B(H 143,C  77)                  1.0840         0.368093   
    167. B(H 144,C  85)                  1.0844         0.367547   
    168. B(H 145,C  78)                  1.0839         0.368283   
    169. B(H 146,H 128)                  3.5007         0.000010   
    170. B(H 146,C  66)                  1.0836         0.368734   
    171. A(O  45,Mn  0,O  46)           90.1340         0.392237   
    172. A(N   1,Mn  0,O  46)           90.8518         0.428995   
    173. A(N  44,Mn  0,O  46)           89.1482         0.428995   
    174. A(N   1,Mn  0,O   5)           89.1482         0.428995   
    175. A(O   4,Mn  0,O  46)           89.8660         0.392237   
    176. A(O   5,Mn  0,O  45)           89.8660         0.392237   
    177. A(N   1,Mn  0,O   4)           91.3451         0.478578   
    178. A(O   4,Mn  0,O   5)           90.1340         0.392237   
    179. A(N  44,Mn  0,O  45)           91.3451         0.478578   
    180. A(O   5,Mn  0,N  44)           90.8518         0.428995   
    181. A(O   4,Mn  0,N  44)           88.6549         0.478578   
    182. A(N   1,Mn  0,O  45)           88.6549         0.478578   
    183. L(Mn  0,N   1,C   2,O   5, 1) 177.9334         0.539827   
    184. L(Mn  0,N   1,C   2,O   5, 2) 178.1132         0.539827   
    185. L(N   1,C   2,S   3,Mn  0, 1) 179.9374         0.533193   
    186. L(N   1,C   2,S   3,Mn  0, 2) 251.7181         0.533193   
    187. A(Mn  0,O   4,P   6)          155.8067         0.529374   
    188. A(Mn  0,O   5,P   7)          150.8659         0.472999   
    189. A(C   8,P   6,C  20)          107.0835         0.442683   
    190. A(C   8,P   6,C  14)          106.7344         0.441149   
    191. A(O   4,P   6,C  20)          113.3567         0.533561   
    192. A(C  14,P   6,C  20)          104.8822         0.441563   
    193. A(O   4,P   6,C  14)          111.8372         0.531634   
    194. A(O   4,P   6,C   8)          112.4175         0.533040   
    195. A(O   5,P   7,C  26)          112.3291         0.532646   
    196. A(C  32,P   7,C  38)          105.9570         0.440921   
    197. A(C  26,P   7,C  38)          105.1133         0.440839   
    198. A(C  26,P   7,C  32)          108.4957         0.442326   
    199. A(O   5,P   7,C  32)          113.2600         0.532750   
    200. A(O   5,P   7,C  38)          111.1733         0.530883   
    201. A(P   6,C   8,C  13)          122.5418         0.437457   
    202. A(P   6,C   8,C   9)          117.6898         0.437959   
    203. A(C   9,C   8,C  13)          119.7668         0.433206   
    204. A(C   8,C   9,H  98)          119.7155         0.354348   
    205. A(C  10,C   9,H  98)          120.1825         0.355480   
    206. A(C   8,C   9,C  10)          120.0810         0.435173   
    207. A(C  11,C  10,H  99)          120.9212         0.355328   
    208. A(C   9,C  10,H  99)          119.0981         0.355214   
    209. A(C   9,C  10,C  11)          119.9788         0.436798   
    210. A(C  12,C  11,H 100)          119.8653         0.354708   
    211. A(C  10,C  11,C  12)          120.1383         0.436239   
    212. A(C  10,C  11,H 100)          119.9951         0.355249   
    213. A(C  13,C  12,H 101)          119.7963         0.355475   
    214. A(C  11,C  12,H 101)          120.1293         0.354707   
    215. A(C  11,C  12,C  13)          120.0733         0.436535   
    216. A(C  12,C  13,H  97)          119.8011         0.355463   
    217. A(C   8,C  13,H  97)          120.2335         0.353611   
    218. A(C   8,C  13,C  12)          119.9601         0.435116   
    219. A(C  15,C  14,C  19)          119.4393         0.433297   
    220. A(P   6,C  14,C  19)          117.7863         0.436013   
    221. A(P   6,C  14,C  15)          122.7741         0.437287   
    222. A(C  14,C  15,C  16)          120.1581         0.435385   
    223. A(C  14,C  15,H  93)          119.9825         0.354480   
    224. A(C  16,C  15,H  93)          119.8593         0.355112   
    225. A(C  15,C  16,C  17)          120.1057         0.436909   
    226. A(C  17,C  16,H  94)          120.1841         0.355577   
    227. A(C  15,C  16,H  94)          119.7101         0.355040   
    228. A(C  16,C  17,C  18)          120.0143         0.436665   
    229. A(C  18,C  17,H  95)          119.9824         0.354768   
    230. A(C  16,C  17,H  95)          120.0032         0.355491   
    231. A(C  17,C  18,C  19)          120.0072         0.437172   
    232. A(C  19,C  18,H  96)          119.6702         0.355957   
    233. A(C  17,C  18,H  96)          120.3225         0.354845   
    234. A(C  14,C  19,C  18)          120.2718         0.435317   
    235. A(C  18,C  19,H  92)          119.7554         0.355893   
    236. A(C  14,C  19,H  92)          119.9728         0.353365   
    237. A(P   6,C  20,C  21)          118.0927         0.438272   
    238. A(C  21,C  20,C  25)          119.7736         0.433036   
    239. A(P   6,C  20,C  25)          122.1315         0.437789   
    240. A(C  20,C  21,H  88)          119.4623         0.354082   
    241. A(C  22,C  21,H  88)          120.6444         0.355595   
    242. A(C  20,C  21,C  22)          119.8852         0.435477   
    243. A(C  23,C  22,H  87)          120.1866         0.355476   
    244. A(C  21,C  22,H  87)          119.6259         0.355651   
    245. A(C  21,C  22,C  23)          120.1816         0.437226   
    246. A(C  24,C  23,H  89)          119.9080         0.355093   
    247. A(C  22,C  23,H  89)          119.9461         0.355294   
    248. A(C  22,C  23,C  24)          120.1419         0.436734   
    249. A(C  25,C  24,H  90)          119.8277         0.355550   
    250. A(C  23,C  24,C  25)          119.9504         0.437021   
    251. A(C  23,C  24,H  90)          120.2159         0.355129   
    252. A(C  20,C  25,C  24)          120.0640         0.435057   
    253. A(C  24,C  25,H  91)          119.7138         0.355456   
    254. A(C  20,C  25,H  91)          120.2133         0.353534   
    255. A(P   7,C  26,C  31)          122.3886         0.437335   
    256. A(C  27,C  26,C  31)          119.7807         0.433267   
    257. A(P   7,C  26,C  27)          117.7989         0.438118   
    258. A(C  28,C  27,H 102)          120.4262         0.355108   
    259. A(C  26,C  27,H 102)          119.5449         0.354255   
    260. A(C  26,C  27,C  28)          120.0105         0.435151   
    261. A(C  27,C  28,H 103)          119.2462         0.355037   
    262. A(C  29,C  28,H 103)          120.7353         0.355313   
    263. A(C  27,C  28,C  29)          120.0067         0.436625   
    264. A(C  30,C  29,H 104)          119.8493         0.354714   
    265. A(C  28,C  29,H 104)          119.9761         0.355253   
    266. A(C  28,C  29,C  30)          120.1659         0.436280   
    267. A(C  29,C  30,C  31)          120.0050         0.436716   
    268. A(C  31,C  30,H 105)          119.8247         0.355643   
    269. A(C  29,C  30,H 105)          120.1616         0.354770   
    270. A(C  26,C  31,C  30)          120.0183         0.435166   
    271. A(C  30,C  31,H 106)          119.6917         0.355453   
    272. A(C  26,C  31,H 106)          120.2783         0.353396   
    273. A(P   7,C  32,C  37)          123.5458         0.438138   
    274. A(P   7,C  32,C  33)          116.9143         0.437471   
    275. A(C  33,C  32,C  37)          119.5357         0.433260   
    276. A(C  32,C  33,H 111)          120.1384         0.353902   
    277. A(C  34,C  33,H 111)          119.5477         0.355976   
    278. A(C  32,C  33,C  34)          120.2906         0.435294   
    279. A(C  33,C  34,C  35)          119.8975         0.437190   
    280. A(C  33,C  34,H 110)          119.0992         0.355734   
    281. A(C  35,C  34,H 110)          120.9976         0.355110   
    282. A(C  34,C  35,H 109)          119.9682         0.355021   
    283. A(C  36,C  35,H 109)          119.9310         0.355201   
    284. A(C  34,C  35,C  36)          120.0977         0.436613   
    285. A(C  35,C  36,H 108)          120.1801         0.355322   
    286. A(C  37,C  36,H 108)          119.6775         0.355356   
    287. A(C  35,C  36,C  37)          120.1375         0.436893   
    288. A(C  32,C  37,C  36)          120.0373         0.435424   
    289. A(C  36,C  37,H 107)          119.7022         0.355430   
    290. A(C  32,C  37,H 107)          120.2523         0.354271   
    291. A(C  39,C  38,C  43)          119.5433         0.433217   
    292. A(P   7,C  38,C  39)          117.4642         0.435822   
    293. A(P   7,C  38,C  43)          122.9921         0.436808   
    294. A(C  40,C  39,H 116)          120.0690         0.355771   
    295. A(C  38,C  39,H 116)          119.8142         0.353375   
    296. A(C  38,C  39,C  40)          120.1123         0.435353   
    297. A(C  39,C  40,H 115)          119.6229         0.355949   
    298. A(C  41,C  40,H 115)          120.2572         0.354961   
    299. A(C  39,C  40,C  41)          120.1194         0.437200   
    300. A(C  40,C  41,H 114)          119.9928         0.354874   
    301. A(C  42,C  41,H 114)          119.9760         0.355452   
    302. A(C  40,C  41,C  42)          120.0302         0.436665   
    303. A(C  43,C  42,H 113)          119.7755         0.355071   
    304. A(C  41,C  42,H 113)          120.1894         0.355506   
    305. A(C  41,C  42,C  43)          120.0339         0.436853   
    306. A(C  42,C  43,H 112)          119.8513         0.355034   
    307. A(C  38,C  43,H 112)          119.9849         0.354231   
    308. A(C  38,C  43,C  42)          120.1601         0.435239   
    309. L(Mn  0,N  44,C  47,O  46, 2) 181.8868         0.539827   
    310. L(Mn  0,N  44,C  47,O  46, 1) 177.9334         0.539827   
    311. A(Mn  0,O  45,P  48)          155.8067         0.529374   
    312. A(Mn  0,O  46,P  49)          150.8659         0.472999   
    313. L(N  44,C  47,S  50,Mn  0, 2) 108.2819         0.533193   
    314. L(N  44,C  47,S  50,Mn  0, 1) 179.9374         0.533193   
    315. A(C  52,P  48,C  53)          104.8822         0.441563   
    316. A(C  51,P  48,C  53)          107.0835         0.442683   
    317. A(O  45,P  48,C  53)          113.3567         0.533561   
    318. A(C  51,P  48,C  52)          106.7344         0.441149   
    319. A(O  45,P  48,C  52)          111.8372         0.531634   
    320. A(O  45,P  48,C  51)          112.4175         0.533040   
    321. A(C  55,P  49,C  56)          105.9570         0.440921   
    322. A(C  54,P  49,C  56)          105.1133         0.440839   
    323. A(O  46,P  49,C  56)          111.1733         0.530883   
    324. A(C  54,P  49,C  55)          108.4957         0.442326   
    325. A(O  46,P  49,C  55)          113.2600         0.532750   
    326. A(O  46,P  49,C  54)          112.3291         0.532646   
    327. A(C  57,C  51,C  58)          119.7668         0.433206   
    328. A(P  48,C  51,C  58)          122.5418         0.437457   
    329. A(P  48,C  51,C  57)          117.6898         0.437959   
    330. A(C  59,C  52,C  60)          119.4393         0.433297   
    331. A(P  48,C  52,C  60)          117.7863         0.436013   
    332. A(P  48,C  52,C  59)          122.7741         0.437287   
    333. A(C  61,C  53,C  62)          119.7736         0.433036   
    334. A(P  48,C  53,C  62)          122.1315         0.437789   
    335. A(P  48,C  53,C  61)          118.0927         0.438272   
    336. A(P  49,C  54,C  63)          117.7989         0.438118   
    337. A(P  49,C  54,C  64)          122.3886         0.437335   
    338. A(C  63,C  54,C  64)          119.7807         0.433267   
    339. A(C  65,C  55,C  66)          119.5357         0.433260   
    340. A(P  49,C  55,C  66)          123.5458         0.438138   
    341. A(P  49,C  55,C  65)          116.9143         0.437471   
    342. A(C  67,C  56,C  68)          119.5433         0.433217   
    343. A(P  49,C  56,C  67)          117.4642         0.435822   
    344. A(P  49,C  56,C  68)          122.9921         0.436808   
    345. A(C  51,C  57,C  69)          120.0810         0.435173   
    346. A(C  69,C  57,H 117)          120.1825         0.355480   
    347. A(C  51,C  57,H 117)          119.7155         0.354348   
    348. A(C  70,C  58,H 121)          119.8011         0.355463   
    349. A(C  51,C  58,H 121)          120.2335         0.353611   
    350. A(C  51,C  58,C  70)          119.9601         0.435116   
    351. A(C  71,C  59,H 131)          119.8593         0.355112   
    352. A(C  52,C  59,H 131)          119.9825         0.354480   
    353. A(C  52,C  59,C  71)          120.1581         0.435385   
    354. A(C  52,C  60,C  72)          120.2718         0.435317   
    355. A(C  72,C  60,H 127)          119.7554         0.355893   
    356. A(C  52,C  60,H 127)          119.9728         0.353365   
    357. A(C  53,C  61,C  73)          119.8852         0.435477   
    358. A(C  73,C  61,H 122)          120.6444         0.355595   
    359. A(C  53,C  61,H 122)          119.4623         0.354082   
    360. A(C  53,C  62,C  74)          120.0640         0.435057   
    361. A(C  74,C  62,H 126)          119.7138         0.355456   
    362. A(C  53,C  62,H 126)          120.2133         0.353534   
    363. A(C  54,C  63,H 136)          119.5449         0.354255   
    364. A(C  54,C  63,C  75)          120.0105         0.435151   
    365. A(C  75,C  63,H 136)          120.4262         0.355108   
    366. A(C  54,C  64,C  76)          120.0183         0.435166   
    367. A(C  76,C  64,H 132)          119.6917         0.355453   
    368. A(C  54,C  64,H 132)          120.2783         0.353396   
    369. A(C  55,C  65,C  77)          120.2906         0.435294   
    370. A(C  55,C  65,H 142)          120.1384         0.353902   
    371. A(C  77,C  65,H 142)          119.5477         0.355976   
    372. A(C  55,C  66,H 146)          120.2523         0.354271   
    373. A(C  55,C  66,C  78)          120.0373         0.435424   
    374. A(C  78,C  66,H 146)          119.7022         0.355430   
    375. A(C  56,C  67,C  79)          120.1123         0.435353   
    376. A(C  79,C  67,H 138)          120.0690         0.355771   
    377. A(C  56,C  67,H 138)          119.8142         0.353375   
    378. A(C  56,C  68,C  80)          120.1601         0.435239   
    379. A(C  80,C  68,H 137)          119.8513         0.355034   
    380. A(C  56,C  68,H 137)          119.9849         0.354231   
    381. A(C  57,C  69,C  81)          119.9788         0.436798   
    382. A(C  81,C  69,H 118)          120.9212         0.355328   
    383. A(C  57,C  69,H 118)          119.0981         0.355214   
    384. A(C  81,C  70,H 120)          120.1293         0.354707   
    385. A(C  58,C  70,H 120)          119.7963         0.355475   
    386. A(C  58,C  70,C  81)          120.0733         0.436535   
    387. A(C  82,C  71,H 130)          120.1841         0.355577   
    388. A(C  59,C  71,H 130)          119.7101         0.355040   
    389. A(C  59,C  71,C  82)          120.1057         0.436909   
    390. A(C  82,C  72,H 128)          120.3225         0.354845   
    391. A(C  60,C  72,H 128)          119.6702         0.355957   
    392. A(C  60,C  72,C  82)          120.0072         0.437172   
    393. A(C  83,C  73,H 123)          120.1866         0.355476   
    394. A(C  61,C  73,H 123)          119.6259         0.355651   
    395. A(C  61,C  73,C  83)          120.1816         0.437226   
    396. A(C  83,C  74,H 125)          120.2159         0.355129   
    397. A(C  62,C  74,H 125)          119.8277         0.355550   
    398. A(C  62,C  74,C  83)          119.9504         0.437021   
    399. A(C  84,C  75,H 135)          120.7353         0.355313   
    400. A(C  63,C  75,H 135)          119.2462         0.355037   
    401. A(C  63,C  75,C  84)          120.0067         0.436625   
    402. A(C  84,C  76,H 133)          120.1616         0.354770   
    403. A(C  64,C  76,H 133)          119.8247         0.355643   
    404. A(C  64,C  76,C  84)          120.0050         0.436716   
    405. A(C  65,C  77,C  85)          119.8975         0.437190   
    406. A(C  85,C  77,H 143)          120.9976         0.355110   
    407. A(C  65,C  77,H 143)          119.0992         0.355734   
    408. A(C  66,C  78,C  85)          120.1375         0.436893   
    409. A(C  85,C  78,H 145)          120.1801         0.355322   
    410. A(C  66,C  78,H 145)          119.6775         0.355356   
    411. A(C  86,C  79,H 139)          120.2572         0.354961   
    412. A(C  67,C  79,H 139)          119.6229         0.355949   
    413. A(C  67,C  79,C  86)          120.1194         0.437200   
    414. A(C  86,C  80,H 141)          120.1894         0.355506   
    415. A(C  68,C  80,H 141)          119.7755         0.355071   
    416. A(C  68,C  80,C  86)          120.0339         0.436853   
    417. A(C  70,C  81,H 119)          119.8653         0.354708   
    418. A(C  69,C  81,H 119)          119.9951         0.355249   
    419. A(C  69,C  81,C  70)          120.1383         0.436239   
    420. A(C  72,C  82,H 129)          119.9824         0.354768   
    421. A(C  71,C  82,H 129)          120.0032         0.355491   
    422. A(C  71,C  82,C  72)          120.0143         0.436665   
    423. A(C  74,C  83,H 124)          119.9080         0.355093   
    424. A(C  73,C  83,H 124)          119.9461         0.355294   
    425. A(C  73,C  83,C  74)          120.1419         0.436734   
    426. A(C  76,C  84,H 134)          119.8493         0.354714   
    427. A(C  75,C  84,H 134)          119.9761         0.355253   
    428. A(C  75,C  84,C  76)          120.1659         0.436280   
    429. A(C  77,C  85,C  78)          120.0977         0.436613   
    430. A(C  78,C  85,H 144)          119.9310         0.355201   
    431. A(C  77,C  85,H 144)          119.9682         0.355021   
    432. A(C  80,C  86,H 140)          119.9760         0.355452   
    433. A(C  79,C  86,H 140)          119.9928         0.354874   
    434. A(C  79,C  86,C  80)          120.0302         0.436665   
    435. D(P   6,O   4,Mn  0,O   5)    179.6943         0.002078   
    436. D(P   6,O   4,Mn  0,O  46)     -0.3057         0.002078   
    437. D(P   6,O   4,Mn  0,N  44)    -89.4568         0.002078   
    438. D(P   6,O   4,Mn  0,N   1)     90.5432         0.002078   
    439. D(P   7,O   5,Mn  0,N  44)    -94.2044         0.001679   
    440. D(P   7,O   5,Mn  0,N   1)     85.7956         0.001679   
    441. D(P   7,O   5,Mn  0,O  45)    174.4524         0.001679   
    442. D(P   7,O   5,Mn  0,O   4)     -5.5476         0.001679   
    443. D(C  14,P   6,O   4,Mn  0)   -178.1699         0.028737   
    444. D(C  20,P   6,O   4,Mn  0)     63.5077         0.028737   
    445. D(C   8,P   6,O   4,Mn  0)    -58.1128         0.028737   
    446. D(C  32,P   7,O   5,Mn  0)    -44.7491         0.028513   
    447. D(C  38,P   7,O   5,Mn  0)   -163.9187         0.028513   
    448. D(C  26,P   7,O   5,Mn  0)     78.6066         0.028513   
    449. D(C   9,C   8,P   6,C  14)     98.7529         0.004331   
    450. D(C   9,C   8,P   6,O   4)    -24.2176         0.004331   
    451. D(C  13,C   8,P   6,C  14)    -80.7853         0.004331   
    452. D(C   9,C   8,P   6,C  20)   -149.3480         0.004331   
    453. D(C  13,C   8,P   6,O   4)    156.2442         0.004331   
    454. D(H  98,C   9,C   8,P   6)      2.1912         0.026468   
    455. D(H  98,C   9,C   8,C  13)   -178.2573         0.026468   
    456. D(C  10,C   9,C   8,C  13)      0.0787         0.026468   
    457. D(C  10,C   9,C   8,P   6)   -179.4728         0.026468   
    458. D(H  99,C  10,C   9,C   8)   -179.2592         0.027547   
    459. D(C  11,C  10,C   9,C   8)      0.2492         0.027547   
    460. D(C  11,C  10,C   9,H  98)    178.5773         0.027547   
    461. D(H  99,C  10,C   9,H  98)     -0.9310         0.027547   
    462. D(H 100,C  11,C  10,H  99)     -0.3460         0.027658   
    463. D(H 100,C  11,C  10,C   9)   -179.8452         0.027658   
    464. D(C  12,C  11,C  10,C   9)     -0.2558         0.027658   
    465. D(C  12,C  11,C  10,H  99)    179.2435         0.027658   
    466. D(C  13,C  12,C  11,C  10)     -0.0675         0.027134   
    467. D(H 101,C  12,C  11,H 100)     -0.0947         0.027134   
    468. D(H 101,C  12,C  11,C  10)   -179.6847         0.027134   
    469. D(C  13,C  12,C  11,H 100)    179.5225         0.027134   
    470. D(C   8,C  13,C  12,C  11)      0.3959         0.027880   
    471. D(H  97,C  13,C  12,C  11)   -178.7697         0.027880   
    472. D(H  97,C  13,C   8,C   9)    178.7609         0.026114   
    473. D(H  97,C  13,C   8,P   6)     -1.7102         0.026114   
    474. D(H  97,C  13,C  12,H 101)      0.8488         0.027880   
    475. D(C  12,C  13,C   8,C   9)     -0.4011         0.026114   
    476. D(C   8,C  13,C  12,H 101)   -179.9856         0.027880   
    477. D(C  12,C  13,C   8,P   6)    179.1278         0.026114   
    478. D(C  19,C  14,P   6,C   8)    178.0790         0.004250   
    479. D(C  19,C  14,P   6,O   4)    -58.5892         0.004250   
    480. D(C  15,C  14,P   6,C  20)   -115.1322         0.004250   
[...]
 69 C      6.1875     6.0000    -0.1875     3.9382     3.9382     0.0000
 70 C      6.1363     6.0000    -0.1363     3.9106     3.9106     0.0000
 71 C      6.1619     6.0000    -0.1619     3.9490     3.9490     0.0000
 72 C      6.1530     6.0000    -0.1530     3.9253     3.9253     0.0000
 73 C      6.2074     6.0000    -0.2074     4.0005     4.0005     0.0000
 74 C      6.1676     6.0000    -0.1676     3.9640     3.9640     0.0000
 75 C      6.1865     6.0000    -0.1865     3.9474     3.9474    -0.0000
 76 C      6.1320     6.0000    -0.1320     3.9202     3.9202     0.0000
 77 C      6.1963     6.0000    -0.1963     3.9553     3.9553     0.0000
 78 C      6.1372     6.0000    -0.1372     3.9611     3.9611     0.0000
 79 C      6.1584     6.0000    -0.1584     3.9566     3.9566     0.0000
 80 C      6.1560     6.0000    -0.1560     3.9594     3.9594     0.0000
 81 C      6.0685     6.0000    -0.0685     3.8495     3.8495     0.0000
 82 C      6.0873     6.0000    -0.0873     3.8831     3.8831     0.0000
 83 C      6.0379     6.0000    -0.0379     3.8459     3.8459     0.0000
 84 C      6.0692     6.0000    -0.0692     3.8661     3.8661     0.0000
 85 C      6.0622     6.0000    -0.0622     3.8363     3.8363     0.0000
 86 C      6.0676     6.0000    -0.0676     3.8896     3.8896     0.0000
 87 H      0.8898     1.0000     0.1102     0.9835     0.9835     0.0000
 88 H      0.8138     1.0000     0.1862     0.9114     0.9114     0.0000
 89 H      0.8846     1.0000     0.1154     0.9655     0.9655     0.0000
 90 H      0.8869     1.0000     0.1131     0.9698     0.9698     0.0000
 91 H      0.8570     1.0000     0.1430     0.9625     0.9625     0.0000
 92 H      0.8439     1.0000     0.1561     0.9638     0.9638     0.0000
 93 H      0.8497     1.0000     0.1503     0.9611     0.9611    -0.0000
 94 H      0.8840     1.0000     0.1160     0.9700     0.9700     0.0000
 95 H      0.8823     1.0000     0.1177     0.9658     0.9658     0.0000
 96 H      0.8775     1.0000     0.1225     0.9680     0.9680     0.0000
 97 H      0.8665     1.0000     0.1335     0.9702     0.9702    -0.0000
 98 H      0.7959     1.0000     0.2041     0.9214     0.9214     0.0000
 99 H      0.8683     1.0000     0.1317     0.9991     0.9991     0.0000
100 H      0.8813     1.0000     0.1187     0.9669     0.9669     0.0000
101 H      0.8837     1.0000     0.1163     0.9684     0.9684     0.0000
102 H      0.7706     1.0000     0.2294     0.8870     0.8870     0.0000
103 H      0.8666     1.0000     0.1334     0.9999     0.9999     0.0000
104 H      0.8817     1.0000     0.1183     0.9667     0.9667     0.0000
105 H      0.8849     1.0000     0.1151     0.9687     0.9687     0.0000
106 H      0.8603     1.0000     0.1397     0.9603     0.9603    -0.0000
107 H      0.8605     1.0000     0.1395     0.9654     0.9654     0.0000
108 H      0.8960     1.0000     0.1040     0.9766     0.9766     0.0000
109 H      0.8860     1.0000     0.1140     0.9673     0.9673     0.0000
110 H      0.8728     1.0000     0.1272     1.0013     1.0013     0.0000
111 H      0.8300     1.0000     0.1700     0.9434     0.9434     0.0000
112 H      0.8502     1.0000     0.1498     0.9630     0.9630    -0.0000
113 H      0.8831     1.0000     0.1169     0.9695     0.9695     0.0000
114 H      0.8833     1.0000     0.1167     0.9659     0.9659     0.0000
115 H      0.8860     1.0000     0.1140     0.9761     0.9761     0.0000
116 H      0.8138     1.0000     0.1862     0.9236     0.9236     0.0000
117 H      0.7959     1.0000     0.2041     0.9214     0.9214     0.0000
118 H      0.8683     1.0000     0.1317     0.9991     0.9991     0.0000
119 H      0.8813     1.0000     0.1187     0.9669     0.9669     0.0000
120 H      0.8837     1.0000     0.1163     0.9684     0.9684     0.0000
121 H      0.8665     1.0000     0.1335     0.9702     0.9702    -0.0000
122 H      0.8138     1.0000     0.1862     0.9114     0.9114     0.0000
123 H      0.8898     1.0000     0.1102     0.9835     0.9835     0.0000
124 H      0.8846     1.0000     0.1154     0.9655     0.9655     0.0000
125 H      0.8869     1.0000     0.1131     0.9698     0.9698     0.0000
126 H      0.8570     1.0000     0.1430     0.9625     0.9625     0.0000
127 H      0.8439     1.0000     0.1561     0.9638     0.9638     0.0000
128 H      0.8775     1.0000     0.1225     0.9680     0.9680     0.0000
129 H      0.8823     1.0000     0.1177     0.9658     0.9658     0.0000
130 H      0.8840     1.0000     0.1160     0.9700     0.9700     0.0000
131 H      0.8497     1.0000     0.1503     0.9611     0.9611    -0.0000
132 H      0.8603     1.0000     0.1397     0.9603     0.9603    -0.0000
133 H      0.8849     1.0000     0.1151     0.9687     0.9687     0.0000
134 H      0.8817     1.0000     0.1183     0.9667     0.9667     0.0000
135 H      0.8666     1.0000     0.1334     0.9999     0.9999     0.0000
136 H      0.7706     1.0000     0.2294     0.8870     0.8870     0.0000
137 H      0.8502     1.0000     0.1498     0.9630     0.9630    -0.0000
138 H      0.8138     1.0000     0.1862     0.9236     0.9236     0.0000
139 H      0.8860     1.0000     0.1140     0.9761     0.9761     0.0000
140 H      0.8833     1.0000     0.1167     0.9659     0.9659     0.0000
141 H      0.8831     1.0000     0.1169     0.9695     0.9695     0.0000
142 H      0.8300     1.0000     0.1700     0.9434     0.9434     0.0000
143 H      0.8728     1.0000     0.1272     1.0013     1.0013     0.0000
144 H      0.8860     1.0000     0.1140     0.9673     0.9673     0.0000
145 H      0.8960     1.0000     0.1040     0.9766     0.9766     0.0000
146 H      0.8605     1.0000     0.1395     0.9654     0.9654     0.0000

  Mayer bond orders larger than 0.100000
B(  0-Mn,  1-N ) :   0.6580 B(  0-Mn,  4-O ) :   0.2531 B(  0-Mn,  5-O ) :   0.1531 
B(  0-Mn, 44-N ) :   0.6580 B(  0-Mn, 45-O ) :   0.2531 B(  0-Mn, 46-O ) :   0.1531 
B(  1-N ,  2-C ) :   2.1813 B(  1-N ,  3-S ) :   0.2277 B(  2-C ,  3-S ) :   1.7670 
B(  4-O ,  6-P ) :   1.6853 B(  5-O ,  7-P ) :   1.7055 B(  6-P ,  8-C ) :   0.9683 
B(  6-P , 14-C ) :   0.9612 B(  6-P , 20-C ) :   0.9613 B(  7-P , 26-C ) :   0.9647 
B(  7-P , 32-C ) :   0.9658 B(  7-P , 38-C ) :   0.9786 B(  8-C ,  9-C ) :   1.3558 
B(  8-C , 13-C ) :   1.3053 B(  9-C , 10-C ) :   1.4210 B(  9-C , 98-H ) :   0.9135 
B( 10-C , 11-C ) :   1.3752 B( 10-C , 99-H ) :   0.9709 B( 11-C , 12-C ) :   1.3766 
B( 11-C ,100-H ) :   0.9744 B( 12-C , 13-C ) :   1.4105 B( 12-C ,101-H ) :   0.9750 
B( 13-C , 97-H ) :   0.9571 B( 14-C , 15-C ) :   1.3280 B( 14-C , 19-C ) :   1.3461 
B( 15-C , 16-C ) :   1.4024 B( 15-C , 93-H ) :   0.9480 B( 16-C , 17-C ) :   1.3977 
B( 16-C , 94-H ) :   0.9765 B( 17-C , 18-C ) :   1.3676 B( 17-C , 95-H ) :   0.9744 
B( 18-C , 19-C ) :   1.4106 B( 18-C , 96-H ) :   0.9793 B( 19-C , 92-H ) :   0.9561 
B( 20-C , 21-C ) :   1.3892 B( 20-C , 25-C ) :   1.2838 B( 21-C , 22-C ) :   1.4233 
B( 21-C , 88-H ) :   0.9009 B( 22-C , 23-C ) :   1.3749 B( 22-C , 87-H ) :   0.9795 
B( 23-C , 24-C ) :   1.3844 B( 23-C , 89-H ) :   0.9719 B( 24-C , 25-C ) :   1.4061 
B( 24-C , 90-H ) :   0.9741 B( 25-C , 91-H ) :   0.9664 B( 26-C , 27-C ) :   1.3475 
B( 26-C , 31-C ) :   1.2879 B( 27-C , 28-C ) :   1.4206 B( 27-C ,102-H ) :   0.9044 
B( 28-C , 29-C ) :   1.3902 B( 28-C ,103-H ) :   0.9637 B( 29-C , 30-C ) :   1.3793 
B( 29-C ,104-H ) :   0.9744 B( 30-C , 31-C ) :   1.4033 B( 30-C ,105-H ) :   0.9741 
B( 31-C ,106-H ) :   0.9704 B( 32-C , 33-C ) :   1.3275 B( 32-C , 37-C ) :   1.3183 
B( 33-C , 34-C ) :   1.4359 B( 33-C ,111-H ) :   0.9358 B( 34-C , 35-C ) :   1.3580 
B( 34-C ,110-H ) :   0.9709 B( 35-C , 36-C ) :   1.3861 B( 35-C ,109-H ) :   0.9774 
B( 36-C , 37-C ) :   1.4303 B( 36-C ,108-H ) :   0.9694 B( 37-C ,107-H ) :   0.9359 
B( 38-C , 39-C ) :   1.3549 B( 38-C , 43-C ) :   1.3180 B( 39-C , 40-C ) :   1.4305 
B( 39-C ,116-H ) :   0.9405 B( 40-C , 41-C ) :   1.3777 B( 40-C ,115-H ) :   0.9749 
B( 41-C , 42-C ) :   1.4065 B( 41-C ,114-H ) :   0.9706 B( 42-C , 43-C ) :   1.4050 
B( 42-C ,113-H ) :   0.9726 B( 43-C ,112-H ) :   0.9498 B( 44-N , 47-C ) :   2.1813 
B( 44-N , 50-S ) :   0.2277 B( 45-O , 48-P ) :   1.6853 B( 46-O , 49-P ) :   1.7055 
B( 47-C , 50-S ) :   1.7670 B( 48-P , 51-C ) :   0.9683 B( 48-P , 52-C ) :   0.9612 
B( 48-P , 53-C ) :   0.9613 B( 49-P , 54-C ) :   0.9647 B( 49-P , 55-C ) :   0.9658 
B( 49-P , 56-C ) :   0.9786 B( 51-C , 57-C ) :   1.3558 B( 51-C , 58-C ) :   1.3053 
B( 52-C , 59-C ) :   1.3280 B( 52-C , 60-C ) :   1.3461 B( 53-C , 61-C ) :   1.3892 
B( 53-C , 62-C ) :   1.2838 B( 54-C , 63-C ) :   1.3475 B( 54-C , 64-C ) :   1.2879 
B( 55-C , 65-C ) :   1.3275 B( 55-C , 66-C ) :   1.3183 B( 56-C , 67-C ) :   1.3549 
B( 56-C , 68-C ) :   1.3180 B( 57-C , 69-C ) :   1.4210 B( 57-C ,117-H ) :   0.9135 
B( 58-C , 70-C ) :   1.4105 B( 58-C ,121-H ) :   0.9571 B( 59-C , 71-C ) :   1.4024 
B( 59-C ,131-H ) :   0.9480 B( 60-C , 72-C ) :   1.4106 B( 60-C ,127-H ) :   0.9561 
B( 61-C , 73-C ) :   1.4233 B( 61-C ,122-H ) :   0.9009 B( 62-C , 74-C ) :   1.4061 
B( 62-C ,126-H ) :   0.9664 B( 63-C , 75-C ) :   1.4206 B( 63-C ,136-H ) :   0.9044 
B( 64-C , 76-C ) :   1.4033 B( 64-C ,132-H ) :   0.9704 B( 65-C , 77-C ) :   1.4359 
B( 65-C ,142-H ) :   0.9358 B( 66-C , 78-C ) :   1.4303 B( 66-C ,146-H ) :   0.9359 
B( 67-C , 79-C ) :   1.4305 B( 67-C ,138-H ) :   0.9405 B( 68-C , 80-C ) :   1.4050 
B( 68-C ,137-H ) :   0.9498 B( 69-C , 81-C ) :   1.3752 B( 69-C ,118-H ) :   0.9709 
B( 70-C , 81-C ) :   1.3766 B( 70-C ,120-H ) :   0.9750 B( 71-C , 82-C ) :   1.3977 
B( 71-C ,130-H ) :   0.9765 B( 72-C , 82-C ) :   1.3676 B( 72-C ,128-H ) :   0.9793 
B( 73-C , 83-C ) :   1.3749 B( 73-C ,123-H ) :   0.9795 B( 74-C , 83-C ) :   1.3844 
B( 74-C ,125-H ) :   0.9741 B( 75-C , 84-C ) :   1.3902 B( 75-C ,135-H ) :   0.9637 
B( 76-C , 84-C ) :   1.3793 B( 76-C ,133-H ) :   0.9741 B( 77-C , 85-C ) :   1.3580 
B( 77-C ,143-H ) :   0.9709 B( 78-C , 85-C ) :   1.3861 B( 78-C ,145-H ) :   0.9694 
B( 79-C , 86-C ) :   1.3777 B( 79-C ,139-H ) :   0.9749 B( 80-C , 86-C ) :   1.4065 
B( 80-C ,141-H ) :   0.9726 B( 81-C ,119-H ) :   0.9744 B( 82-C ,129-H ) :   0.9744 
B( 83-C ,124-H ) :   0.9719 B( 84-C ,134-H ) :   0.9744 B( 85-C ,144-H ) :   0.9774 
B( 86-C ,140-H ) :   0.9706 

-------
TIMINGS
-------

Total SCF time: 0 days 0 hours 13 min 35 sec 

Total time                  ....     815.906 sec
Sum of individual times     ....     812.560 sec  ( 99.6%)

SCF preparation             ....       2.516 sec  (  0.3%)
Fock matrix formation       ....     775.432 sec  ( 95.0%)
  Startup                   ....       1.492 sec  (  0.2% of F)
  Split-RI-J                ....      27.344 sec  (  3.5% of F)
  Chain of spheres X        ....     693.146 sec  ( 89.4% of F)
  XC integration            ....      49.585 sec  (  6.4% of F)
    Basis function eval.    ....       3.196 sec  (  6.4% of XC)
    Density eval.           ....      20.854 sec  ( 42.1% of XC)
    XC-Functional eval.     ....       0.168 sec  (  0.3% of XC)
    XC-Potential eval.      ....      17.836 sec  ( 36.0% of XC)
Diagonalization             ....       0.000 sec  (  0.0%)
Density matrix formation    ....       3.865 sec  (  0.5%)
Total Energy calculation    ....       1.567 sec  (  0.2%)
Population analysis         ....       4.039 sec  (  0.5%)
Orbital Transformation      ....       4.762 sec  (  0.6%)
Orbital Orthonormalization  ....       0.000 sec  (  0.0%)
DIIS solution               ....       5.102 sec  (  0.6%)
SOSCF solution              ....      15.277 sec  (  1.9%)
Finished LeanSCF after 819.0 sec

Maximum memory used throughout the entire LEANSCF-calculation: 1262.3 MB


           ************************************************************
           *        Program running with 16 parallel MPI-processes    *
           *              working on a common directory               *
           ************************************************************

------------------------------------------------------------------------------
                         ORCA PROPERTY INTEGRAL CALCULATIONS
------------------------------------------------------------------------------

GBWName                                   ... SEWMUC-S6.gbw
Number of atoms                           ...    147
Number of basis functions                 ...   3107
Max core memory                           ...  36000 MB

Dipole integrals                          ... YES
Quadrupole integrals                      ...  NO
Linear momentum integrals                 ...  NO
Angular momentum integrals                ...  NO
Higher moments length integrals           ...  NO
Higher moments velocity integrals         ...  NO
Kinetic energy integrals                  ...  NO
GIAO right hand sides                     ...  NO
GIAO dipole derivative integrals          ...  NO
SOC integrals                             ...  NO
EPR diamagnetic integrals (GIAO)          ...  NO
EPR gauge integrals                       ...  NO
Field gradient integrals                  ...  NO (   0 nuclei)
Spin-dipole/Fermi contact integrals       ...  NO (   0 nuclei)
Contact density integrals                 ...  NO (   0 nuclei)
Nucleus-orbit integrals                   ...  NO (   0 nuclei)
Geometric perturbations                   ... YES ( 147 nuclei)

Choice of electric origin   ... Center of mass
Position of electric origin ... (  0.0000,  0.0000,  0.0000) 
Choice of magnetic origin   ... GIAO
Position of magnetic origin ... (  0.0000,  0.0000,  0.0000) 

Calculating integrals                     ... Electric Dipole (Length)     done (  0.5 sec)
Calculating integrals                     ... Geometrical perturbation right hand sides

-----------------------
GEOMETRIC PERTURBATIONS (147 nuclei)
-----------------------

MaxCore                            ...  36000 MB
Number of batches                  ...      6

BATCH   0: Atoms    0 -   26 ( 81 perturbations)
   => H(core) and overlap derivative integrals     ... done (    14.8 sec)
   => Making and storing internal U-coefficients   ... done (     8.3 sec)
done (   268.5 sec)
done (    45.6 sec)
done (  1822.1 sec)
done ( 15513.8 sec)
   => XC derivative integrals                      ... done (  1261.3 sec)
   => XC response operators                        ... done (   814.9 sec)
   => Completing and storing right hand sides      ... done (     4.0 sec)
BATCH   1: Atoms   27 -   53 ( 81 perturbations)
   => H(core) and overlap derivative integrals     ... done (    17.7 sec)
   => Making and storing internal U-coefficients   ... done (     9.4 sec)
done (   609.1 sec)
done (    92.9 sec)
done (  1843.4 sec)
done ( 17317.7 sec)
   => XC derivative integrals                      ... done (  1392.5 sec)
   => XC response operators                        ... done (   831.7 sec)
   => Completing and storing right hand sides      ... done (     3.9 sec)
BATCH   2: Atoms   54 -   80 ( 81 perturbations)
   => H(core) and overlap derivative integrals     ... done (    25.8 sec)
   => Making and storing internal U-coefficients   ... done (     8.2 sec)
done (   695.0 sec)
done (    75.8 sec)
done (  1770.5 sec)
done ( 15934.5 sec)
   => XC derivative integrals                      ... done (  1142.4 sec)
   => XC response operators                        ... done (   810.7 sec)
   => Completing and storing right hand sides      ... done (     4.4 sec)
BATCH   3: Atoms   81 -  107 ( 81 perturbations)
   => H(core) and overlap derivative integrals     ... done (    17.7 sec)
   => Making and storing internal U-coefficients   ... done (     8.6 sec)
done (   475.3 sec)
done (    84.4 sec)
done (  1552.3 sec)
done ( 15861.3 sec)
   => XC derivative integrals                      ... done (   756.8 sec)
   => XC response operators                        ... done (   736.2 sec)
   => Completing and storing right hand sides      ... done (     4.3 sec)
BATCH   4: Atoms  108 -  134 ( 81 perturbations)
   => H(core) and overlap derivative integrals     ... done (    24.0 sec)
   => Making and storing internal U-coefficients   ... done (     8.6 sec)
done (   692.9 sec)
done (    67.0 sec)
done (  1458.7 sec)
done ( 13159.0 sec)
   => XC derivative integrals                      ... done (   834.5 sec)
   => XC response operators                        ... done (   727.9 sec)
   => Completing and storing right hand sides      ... done (     5.1 sec)
BATCH   5: Atoms  135 -  146 ( 36 perturbations)
   => H(core) and overlap derivative integrals     ... done (     5.7 sec)
   => Making and storing internal U-coefficients   ... done (     3.6 sec)
done (   267.1 sec)
done (    38.7 sec)
done (   648.1 sec)
done (  4341.9 sec)
   => XC derivative integrals                      ... done (   471.0 sec)
   => XC response operators                        ... done (   360.7 sec)
   => Completing and storing right hand sides      ... done (     1.8 sec)
   => Total time for right hand sides = 105531.5 sec

  geometrical perturbations done (105531.7 sec)

Property integrals calculated in 105532.4 sec

Maximum memory used throughout the entire PROPINT-calculation: 33245.9 MB

-------------------------   --------------------
FINAL SINGLE POINT ENERGY     -6575.900289670034
-------------------------   --------------------

                                *** OPTIMIZATION RUN DONE ***



           ************************************************************
           *        Program running with 16 parallel MPI-processes    *
           *              working on a common directory               *
           ************************************************************
------------------------------------------------------------------------------
                            ORCA SCF RESPONSE CALCULATION
------------------------------------------------------------------------------

GBWName                                 ... SEWMUC-S6.gbw
Number of atoms                         ...    147
Number of basis functions               ...   3107
Max core memory                         ...  36000 MB

Electric field perturbation             ...  NO
Quadrupolar field perturbation          ...  NO
Magnetic field perturbation (no GIAO)   ...  NO
Magnetic field perturbation (with GIAO) ...  NO
Linear momentum (velocity) perturbation ...  NO
Spin-orbit coupling perturbation        ...  NO
Choice of electric origin               ... Center of mass
Position of electric origin             ...     0.000000     0.000000     0.000000
Choice of magnetic origin               ... GIAO
Position of magnetic origin             ...     0.000000     0.000000     0.000000
Nuclear geometric perturbations         ... YES ( 441 perturbations)
Nucleus-orbit perturbations             ...  NO (   0 perturbations)
Spin-dipole/Fermi contact perturbations ...  NO (   0 perturbations)

Total number of real perturbations      ...    441
Total number of imaginary perturbations ...      0
Total number of triplet perturbations   ...      0
Total number of SOC perturbations       ...      0

Using XC Grid                  ... (SEWMUC-S6.grid_cpscf.tmp) 
Recalculating density on grid  ... (SEWMUC-S6.grho_cpscf0.tmp) done
Calculating the xc-kernel      ... (SEWMUC-S6.fxc_cpscf0.tmp) done

                                **********************
                                * REAL PERTURBATIONS *
                                **********************



-------------------
SHARK CP-SCF DRIVER
-------------------

Dimension of the orbital basis          ...   3107
Dimension of the CPSCF-problem          ... 1849920
Number of operators                     ...      2
Max. number of iterations               ...    128
Convergence Tolerance                   ... 1.0e-04
Number of perturbations                 ...    441
Perturbation type                       ... REAL

----------------------------
POPLE LINEAR EQUATION SOLVER
----------------------------

  ||err||_max =   6.1639e-01 (16954.7 sec   0/441 done)
