
                                 *****************
                                 * O   R   C   A *
                                 *****************

                                            #,                                       
                                            ###                                      
                                            ####                                     
                                            #####                                    
                                            ######                                   
                                           ########,                                 
                                     ,,################,,,,,                         
                               ,,#################################,,                 
                          ,,##########################################,,             
                       ,#########################################, ''#####,          
                    ,#############################################,,   '####,        
                  ,##################################################,,,,####,       
                ,###########''''           ''''###############################       
              ,#####''   ,,,,##########,,,,          '''####'''          '####       
            ,##' ,,,,###########################,,,                        '##       
           ' ,,###''''                  '''############,,,                           
         ,,##''                                '''############,,,,        ,,,,,,###''
      ,#''                                            '''#######################'''  
     '                                                          ''''####''''         
             ,#######,   #######,   ,#######,      ##                                
            ,#'     '#,  ##    ##  ,#'     '#,    #''#        ,####,   ,####,        
            ##       ##  ##   ,#'  ##            #'  '#       #'       #'  '#        
            ##       ##  #######   ##           ,######,      #####,   #    #        
            '#,     ,#'  ##    ##  '#,     ,#' ,#      #,     #,   #   #,  ,#        
             '#######'   ##     ##  '#######'  #'      '#     '####' # '####'        



                #########################################################
                #                        -***-                          #
                #          Department of theory and spectroscopy        #
                #                                                       #
                #                      Frank Neese                      #
                #                                                       #
                #     Directorship, Architecture, Infrastructure        #
                #                    SHARK, DRIVERS                     #
                #        Core code/Algorithms in most modules           #
                #                                                       #
                #        Max Planck Institute fuer Kohlenforschung      #
                #                Kaiser Wilhelm Platz 1                 #
                #                 D-45470 Muelheim/Ruhr                 #
                #                      Germany                          #
                #                                                       #
                #                  All rights reserved                  #
                #                        -***-                          #
                #########################################################


                         Program Version 6.0.1  -  RELEASE   -


 With contributions from (in alphabetic order):
[Max-Planck-Institut fuer Kohlenforschung]                               
  Daniel Aravena         : Magnetic Suceptibility                        
  Michael Atanasov       : Ab Initio Ligand Field Theory (pilot matlab implementation)
  Alexander A. Auer      : GIAO ZORA, VPT2 properties, NMR spectrum      
  Ute Becker             : All parallelization in ORCA, NUMFREQ, NUMCALC 
  Giovanni Bistoni       : ED, misc. LED, open-shell LED, HFLD           
  Martin Brehm           : Molecular dynamics                            
  Dmytro Bykov           : pre 5.0 version of the SCF Hessian            
  Marcos Casanova-Páez   : Triplet and SCS-CIS(D). UHF-(DLPNO)-IP/EA/STEOM-CCSD. UHF-CVS-IP/STEOM-CCSD   
  Vijay G. Chilkuri      : MRCI spin determinant printing, contributions to CSF-ICE 
  Pauline Colinet        : FMM embedding                                 
  Dipayan Datta          : RHF DLPNO-CCSD density                        
  Achintya Kumar Dutta   : EOM-CC, STEOM-CC                              
  Nicolas Foglia         : Exact transition moments, OPA infrastructure, MCD improvements    
  Dmitry Ganyushin       : Spin-Orbit,Spin-Spin,Magnetic field MRCI      
  Miquel Garcia-Rates    : C-PCM and meta-GGA Hessian, CCSD/C-PCM, Gaussian charge scheme 
  Tiago L. C. Gouveia    : GS-ROHF, GS-ROCIS                             
  Yang Guo               : DLPNO-NEVPT2, F12-NEVPT2, CIM, IAO-localization        
  Andreas Hansen         : Spin unrestricted coupled pair/coupled cluster methods 
  Ingolf Harden          : AUTO-CI MPn and infrastructure                
  Benjamin Helmich-Paris : MC-RPA, TRAH-(SCF,CASSCF), AVAS, COSX integrals, SCF dyn. polar. 
  Lee Huntington         : MR-EOM, pCC                                   
  Robert Izsak           : Overlap fitted RIJCOSX, COSX-SCS-MP3, EOM     
  Riya Kayal             : Wick's Theorem for AUTO-CI, AUTO-CI UHF-CCSDT 
  Emily Kempfer          : AUTO-CI, RHF CISDT and CCSDT                  
  Christian Kollmar      : KDIIS, OOCD, Brueckner-CCSD(T), CCSD density, CASPT2, CASPT2-K, improved NEVPT2 
  Axel Koslowski         : Symmetry handling                             
  Simone Kossmann        : meta-GGA functionals, TD-DFT gradient, OOMP2, (MP2 Hessian; deprecated post 5.0) 
  Lucas Lang             : DCDCAS                                        
  Marvin Lechner         : AUTO-CI (C++ implementation), FIC-MRCC        
  Spencer Leger          : CASSCF response                               
  Dagmar Lenk            : GEPOL surface, SMD, ORCA-2-JSON               
  Dimitrios Liakos       : Extrapolation schemes; Compound Job, initial MDCI parallelization 
  Dimitrios Manganas     : Further ROCIS development; embedding schemes. LFT, Crystal Embedding 
  Dimitrios Pantazis     : SARC Basis sets                               
  Anastasios Papadopoulos: AUTO-CI, single reference methods and gradients 
  Taras Petrenko         : pre 6.0 DFT Hessian and TD-DFT gradient, (ASA, deprecated), ECA, 1-Electron XAS/XES, NRVS 
  Peter Pinski           : DLPNO-MP2, DLPNO-MP2 Gradient                 
  Christoph Reimann      : Effective Core Potentials                     
  Marius Retegan         : Local ZFS, SOC                                
  Christoph Riplinger    : Optimizer, TS searches, QM/MM, DLPNO-CCSD(T), (RO)-DLPNO pert. Triples 
  Michael Roemelt        : Original ROCIS implementation                 
  Masaaki Saitow         : Open-shell DLPNO-CCSD energy and density      
  Barbara Sandhoefer     : DKH picture change effects                    
  Kantharuban Sivalingam : CASSCF convergence/infrastructure, NEVPT2 and variants, FIC-MRCI 
  Bernardo de Souza      : ESD, SOC TD-DFT                               
  Georgi L. Stoychev     : AutoAux, RI-MP2 NMR, DLPNO-MP2 response, X2C  
  Van Anh Tran           : RI-MP2 g-tensors                              
  Willem Van den Heuvel  : Paramagnetic NMR                              
  Zikuan Wang            : NOTCH, Electric field optimization            
  Frank Wennmohs         : Technical directorship and infrastructure     
  Hang Xu                : AUTO-CI-Response properties                   
                                                                         
[FACCTs GmbH]                                                            
  Markus Bursch, Miquel Garcia-Rates, Christoph Riplinger, Bernardo de Souza, Georgi L. Stoychev 
                                                                 
  APM, Basis sets (HGBS, AHGBS, def-TZVP (Ac-Lr), def2-XVPD (La-Lu)), CI-OPT, improved COSX, DLPNO-Multilevel,           
  DOCKER, DRACO, updates on ESD, GOAT, IRC, LR-CPCM, MBIS, meta-GGA TD-DFT gradient, ML-optimized integration grids, 
  MM, NACMEs, nearIR, NEB, NEB-TS, NL-DFT gradient (VV10), 2- and 3-layer-ONIOM, interface openCOSMO-RS, QMMM,   
  Crystal-QMMM, SF, symmetry and pop. for TD-DFT, r2SCAN hybrids, SOLVATOR                                   
                                                                         
[Other institutions]                                                     
  V. Asgeirsson          : NEB                                           
  Christoph Bannwarth    : sTDA-DFT, sTD-DFT, PBEh-3c, B97-3c, D3        
  Sebastian Ehlert       : rSCAN, r2SCAN, r2SCAN-3c, D4, dhf basis sets  
  Marvin Friede          : D4 for Fr, Ra, Ac-Lr                          
  Lars Goerigk           : TD-DFT with DH, B97 family of functionals     
  Stefan Grimme          : VdW corrections, initial TS optimization, DFT functionals, gCP, sTDA/sTD-DF 
  Waldemar Hujo          : DFT-NL                                        
  H. Jonsson             : NEB                                           
  Holger Kruse           : gCP                                           
  Marcel Mueller         : wB97X-3c, vDZP basis set                      
  Hagen Neugebauer       : wr2SCAN                                       
  Tobias Risthaus        : range-separated hybrid DFT                    
  Lukas Wittmann         : regularized MP2, r2SCAN double-hybrids, wr2SCAN        
                                                                         
We gratefully acknowledge several colleagues who have allowed us to      
interface, adapt or use parts of their codes:                            
  Ed Valeev, F. Pavosevic, A. Kumar             : LibInt (2-el integral package), F12 methods 
  Garnet Chan, S. Sharma, J. Yang, R. Olivares  : DMRG                   
  Ulf Ekstrom                                   : XCFun DFT Library      
  Mihaly Kallay                                 : mrcc  (arbitrary order and MRCC methods)
  Frank Weinhold                                : gennbo (NPA and NBO analysis)           
  Simon Mueller                                 : openCOSMO-RS                            
  Christopher J. Cramer and Donald G. Truhlar   : smd solvation model                     
  S Lehtola, MJT Oliveira, MAL Marques          : LibXC Library                           
  Liviu Ungur et al                             : ANISO software                          


 Your calculation uses the libint2 library for the computation of 2-el integrals
 For citations please refer to: http://libint.valeyev.net

 Your ORCA version has been built with support for libXC version: 6.2.2
 For citations please refer to: https://libxc.gitlab.io

 This ORCA versions uses:
   CBLAS   interface :  Fast vector & matrix operations
   LAPACKE interface :  Fast linear algebra routines
   SCALAPACK package :  Parallel linear algebra routines
   Shared memory     :  Shared parallel matrices
   BLAS/LAPACK       :  OpenBLAS 0.3.27  USE64BITINT DYNAMIC_ARCH NO_AFFINITY Cooperlake SINGLE_THREADED
        Core in use  :  Cooperlake
   Copyright (c) 2011-2014, The OpenBLAS Project


NOTE: MaxCore=6582 MB was set to SCF,MP2,MDCI,CIPSI,MRCI and CIS
      => If you want to overwrite this, your respective input block should be placed after the MaxCore statement
Warning: RI is on but no J-basis has been assigned. Assigning Def2/J (nothing to worry about!)
================================================================================

----- Orbital basis set information -----
Your calculation utilizes the basis: def2-TZVP
   F. Weigend and R. Ahlrichs, Phys. Chem. Chem. Phys. 7, 3297 (2005).

----- AuxJ basis set information -----
Your calculation utilizes the auxiliary basis: def2/J
   F. Weigend, Phys. Chem. Chem. Phys. 8, 1057 (2006).

================================================================================
                                        WARNINGS
                       Please study these warnings very carefully!
================================================================================


WARNING: your system is open-shell and RHF/RKS was chosen
  ===> : WILL SWITCH to UHF/UKS


WARNING: Geometry Optimization
  ===> : Switching off AutoStart
         For restart on a previous wavefunction, please use MOREAD

================================================================================
                                       INPUT FILE
================================================================================
NAME = XAKDOE01-S6.inp
|  1> ! PBE0 def2-TZVP Opt Freq DEFGRID3 SlowConv
|  2> 
|  3> %maxcore 6582
|  4> 
|  5> %pal
|  6>     nprocs 16
|  7> end
|  8> 
|  9> *xyz 0 4
| 10> Mn 5.72690838037461 1.89472660691511 4.49048778523493
| 11> S 8.43899871983511 -0.13023592114716 1.13965945140098
| 12> O 6.16674631569805 3.83591992192776 3.06828427743079
| 13> H 6.58028270104531 3.17150715727485 2.49356558557618
| 14> N 6.81233501073962 1.14896430229735 2.99936620818391
| 15> N 4.09748814303201 2.03702140010503 3.28712834302355
| 16> C 7.50111887333018 0.6084104944636 2.2046753433011
| 17> C 3.93507499511963 3.07248561744353 2.45199087320863
| 18> C 2.88077351492444 3.11991631684019 1.55381367603654
| 19> H 2.78900682033414 3.96877118463199 0.88645121941605
| 20> C 1.96789893749936 2.08117255673003 1.51666317150182
| 21> H 1.13980394793918 2.10103665386666 0.81824699152631
| 22> C 2.13995710357307 1.01504076641397 2.38430373939669
| 23> H 1.45629427749216 0.1765150901828 2.39649578316542
| 24> C 3.21263265343905 1.03289239605518 3.25205172515062
| 25> H 3.37822318314992 0.23019477960139 3.95956471213814
| 26> C 4.91446874650301 4.21198919181384 2.54951595250425
| 27> H 4.51578335141008 4.95955103070227 3.24212102928462
| 28> H 5.01518434488802 4.69072690346753 1.56921023495344
| 29> S 3.0900718187439 -0.16756564914127 7.86723996926945
| 30> O 5.32117461114563 3.87827134498683 5.84366227096924
| 31> H 4.89914111638265 3.23589069710782 6.437896028522
| 32> N 4.62786091289612 1.22053587690401 6.01036422528276
| 33> N 7.36549318860431 2.05254398700158 5.68160538438772
| 34> C 3.97521050907921 0.62707210198763 6.7982005405618
| 35> C 7.54524066754592 3.11286901485286 6.48105819888614
| 36> C 8.60701484684332 3.17842731561528 7.36926412265057
| 37> H 8.71358313779817 4.04741580408969 8.00783068120431
| 38> C 9.50875688505722 2.13137658221143 7.43384274620609
| 39> H 10.34261276884687 2.16538279143133 8.12486624913627
| 40> C 9.31835049909202 1.0389347594676 6.60350106632963
| 41> H 9.99303913182906 0.19306775194713 6.6137385285689
| 42> C 8.23952055486785 1.04018246389906 5.74336261304115
| 43> H 8.05902800926202 0.21667912897822 5.06397246128991
| 44> C 6.57575206730462 4.25805518382066 6.35359545512769
| 45> H 6.9817123098086 4.98341421601404 5.64174896317716
| 46> H 6.47905694456458 4.76324017923972 7.32075439295439
| 47> *
| 48> 
| 49>                          ****END OF INPUT****
================================================================================

                       *****************************
                       * Geometry Optimization Run *
                       *****************************

Geometry optimization settings:
Update method            Update   .... BFGS
Choice of coordinates    CoordSys .... (2022) Redundant Internals
Initial Hessian          InHess   .... Almloef's Model
Max. no of cycles        MaxIter  .... 111

Convergence Tolerances:
Energy Change            TolE     ....  5.0000e-06 Eh
Max. Gradient            TolMAXG  ....  3.0000e-04 Eh/bohr
RMS Gradient             TolRMSG  ....  1.0000e-04 Eh/bohr
Max. Displacement        TolMAXD  ....  4.0000e-03 bohr
RMS Displacement         TolRMSD  ....  2.0000e-03 bohr
Strict Convergence                .... False

------------------------------------------------------------------------------
                        ORCA OPTIMIZATION COORDINATE SETUP
------------------------------------------------------------------------------

The optimization will be done in redundant internal coordinates (2022)
Making redundant internal coordinates   ...  (2022 redundants) done
Evaluating the initial hessian          ...  (Almloef) done
Evaluating the coordinates              ...  done
Calculating the B-matrix                .... done
Calculating the G-matrix                .... done
Diagonalizing the G-matrix              .... done
Small eigenvalue found = 1.445e-02
Small eigenvalue found = 2.294e-02
Small eigenvalue found = 2.646e-02
The first mode is                       ....  118
The number of degrees of freedom        ....  105

    -----------------------------------------------------------------
                    Redundant Internal Coordinates


    -----------------------------------------------------------------
         Definition                    Initial Value    Approx d2E/dq
    -----------------------------------------------------------------
      1. B(O   2,Mn  0)                  2.4463         0.116883   
      2. B(H   3,O   2)                  0.9710         0.499442   
      3. B(N   4,Mn  0)                  1.9894         0.626150   
      4. B(N   4,H   3)                  2.0977         0.007959   
      5. B(N   5,Mn  0)                  2.0306         0.538227   
      6. B(C   6,S   1)                  1.5998         0.779338   
      7. B(C   6,N   4)                  1.1824         1.199583   
      8. B(C   7,N   5)                  1.3402         0.672044   
      9. B(C   8,C   7)                  1.3858         0.634442   
     10. B(H   9,C   8)                  1.0837         0.368567   
     11. B(C  10,C   8)                  1.3834         0.640204   
     12. B(H  11,C  10)                  1.0835         0.368834   
     13. B(C  12,C  10)                  1.3853         0.635690   
     14. B(H  13,C  12)                  1.0820         0.370875   
     15. B(C  14,C  12)                  1.3798         0.648575   
     16. B(C  14,N   5)                  1.3388         0.675318   
     17. B(H  15,C  14)                  1.0827         0.369838   
     18. B(C  16,C   7)                  1.5057         0.408428   
     19. B(C  16,O   2)                  1.4067         0.526337   
     20. B(H  17,C  16)                  1.0943         0.354452   
     21. B(H  18,C  16)                  1.0956         0.352772   
     22. B(O  20,Mn  0)                  2.4352         0.121749   
     23. B(H  21,O  20)                  0.9715         0.498384   
     24. B(N  22,Mn  0)                  1.9931         0.617713   
     25. B(N  22,H  21)                  2.0780         0.008556   
     26. B(N  23,Mn  0)                  2.0319         0.535656   
     27. B(C  24,N  22)                  1.1827         1.198312   
     28. B(C  24,S  19)                  1.5993         0.780871   
     29. B(C  25,N  23)                  1.3400         0.672317   
     30. B(C  26,C  25)                  1.3858         0.634402   
     31. B(H  27,C  26)                  1.0836         0.368619   
     32. B(C  28,C  26)                  1.3833         0.640276   
     33. B(H  29,C  28)                  1.0835         0.368794   
     34. B(C  30,C  28)                  1.3853         0.635598   
     35. B(H  31,C  30)                  1.0820         0.370792   
     36. B(C  32,C  30)                  1.3798         0.648768   
     37. B(C  32,N  23)                  1.3389         0.675190   
     38. B(H  33,C  32)                  1.0827         0.369846   
     39. B(C  34,C  25)                  1.5059         0.408221   
     40. B(C  34,O  20)                  1.4065         0.526692   
     41. B(H  35,C  34)                  1.0944         0.354348   
     42. B(H  36,C  34)                  1.0954         0.352993   
     43. A(N   4,Mn  0,N  23)           91.6335         0.530092   
     44. A(O   2,Mn  0,O  20)           72.9418         0.304732   
     45. A(O   2,Mn  0,N   5)           75.1755         0.391006   
     46. A(N  22,Mn  0,N  23)           91.3715         0.528739   
     47. A(O   2,Mn  0,N  22)          144.1838         0.400570   
     48. A(N   4,Mn  0,N   5)           91.1401         0.530570   
     49. A(N   5,Mn  0,N  22)           91.8985         0.529216   
     50. A(O  20,Mn  0,N  23)           75.2475         0.393477   
     51. A(N   4,Mn  0,N  22)          138.2126         0.544553   
     52. A(N   5,Mn  0,N  23)          171.5160         0.515241   
     53. A(O   2,Mn  0,N   4)           76.3266         0.401528   
     54. A(N   5,Mn  0,O  20)           97.9626         0.393807   
     55. A(N   4,Mn  0,O  20)          144.3645         0.404427   
     56. A(O   2,Mn  0,N  23)           97.7111         0.390679   
     57. A(O  20,Mn  0,N  22)           76.1082         0.403460   
     58. A(H   3,O   2,C  16)          110.1090         0.357429   
     59. A(Mn  0,O   2,H   3)           82.9750         0.310065   
     60. A(Mn  0,O   2,C  16)          105.4553         0.348547   
     61. A(Mn  0,N   4,C   6)          173.1848         0.546274   
     62. A(C   7,N   5,C  14)          118.8856         0.441411   
     63. A(Mn  0,N   5,C   7)          121.3782         0.476569   
     64. A(Mn  0,N   5,C  14)          119.5584         0.476996   
     65. L(S   1,C   6,N   4,Mn  0, 1) 179.5132         0.536858   
     66. L(S   1,C   6,N   4,Mn  0, 2) 178.7341         0.536858   
     67. A(N   5,C   7,C  16)          117.7448         0.406108   
     68. A(C   8,C   7,C  16)          120.7252         0.404599   
     69. A(N   5,C   7,C   8)          121.5017         0.439349   
     70. A(H   9,C   8,C  10)          121.0479         0.356233   
     71. A(C   7,C   8,H   9)          119.3645         0.355687   
     72. A(C   7,C   8,C  10)          119.5863         0.438396   
     73. A(H  11,C  10,C  12)          120.8485         0.355850   
     74. A(C   8,C  10,H  11)          120.5238         0.356277   
     75. A(C   8,C  10,C  12)          118.6267         0.438551   
     76. A(C  10,C  12,H  13)          121.6696         0.356183   
     77. A(H  13,C  12,C  14)          119.6137         0.357399   
     78. A(C  10,C  12,C  14)          118.7167         0.439581   
     79. A(C  12,C  14,H  15)          121.3485         0.357229   
     80. A(N   5,C  14,H  15)          115.9651         0.357466   
     81. A(N   5,C  14,C  12)          122.6817         0.441488   
     82. A(O   2,C  16,H  18)          111.4054         0.340042   
     83. A(C   7,C  16,H  17)          108.7238         0.328260   
     84. A(O   2,C  16,H  17)          105.8761         0.340312   
     85. A(O   2,C  16,C   7)          113.6168         0.389044   
     86. A(H  17,C  16,H  18)          107.5357         0.289185   
     87. A(C   7,C  16,H  18)          109.4223         0.328003   
     88. A(Mn  0,O  20,H  21)           82.7430         0.312008   
     89. A(H  21,O  20,C  34)          110.1367         0.357342   
     90. A(Mn  0,O  20,C  34)          105.8302         0.350995   
     91. A(Mn  0,N  22,C  24)          169.1065         0.544762   
     92. A(C  25,N  23,C  32)          118.8951         0.441428   
     93. A(Mn  0,N  23,C  32)          119.6533         0.476559   
     94. A(Mn  0,N  23,C  25)          121.2887         0.476185   
     95. L(S  19,C  24,N  22,Mn  0, 2) 179.1717         0.536950   
     96. L(S  19,C  24,N  22,Mn  0, 1) 180.3104         0.536950   
     97. A(N  23,C  25,C  26)          121.5040         0.439376   
     98. A(C  26,C  25,C  34)          120.7661         0.404559   
     99. A(N  23,C  25,C  34)          117.7030         0.406101   
    100. A(H  27,C  26,C  28)          121.0214         0.356249   
    101. A(C  25,C  26,C  28)          119.5735         0.438400   
    102. A(C  25,C  26,H  27)          119.4037         0.355692   
    103. A(H  29,C  28,C  30)          120.8498         0.355834   
    104. A(C  26,C  28,C  30)          118.6396         0.438549   
    105. A(C  26,C  28,H  29)          120.5096         0.356277   
    106. A(H  31,C  30,C  32)          119.6137         0.357404   
    107. A(C  28,C  30,C  32)          118.7121         0.439593   
    108. A(C  28,C  30,H  31)          121.6741         0.356161   
    109. A(N  23,C  32,C  30)          122.6745         0.441496   
    110. A(C  30,C  32,H  33)          121.3877         0.357249   
    111. A(N  23,C  32,H  33)          115.9334         0.357456   
    112. A(H  35,C  34,H  36)          107.5397         0.289200   
    113. A(C  25,C  34,H  36)          109.4398         0.328010   
    114. A(O  20,C  34,H  36)          111.4625         0.340116   
    115. A(C  25,C  34,H  35)          108.6804         0.328217   
    116. A(O  20,C  34,H  35)          105.9040         0.340333   
    117. A(O  20,C  34,C  25)          113.5540         0.389056   
    118. D(H   3,O   2,Mn  0,N  23)     94.2611         0.001577   
    119. D(C  16,O   2,Mn  0,N   5)     18.5292         0.001577   
    120. D(C  16,O   2,Mn  0,N   4)    113.4381         0.001577   
    121. D(H   3,O   2,Mn  0,N  22)   -162.5065         0.001577   
    122. D(H   3,O   2,Mn  0,O  20)    166.1814         0.001577   
    123. D(H   3,O   2,Mn  0,N   5)    -90.4567         0.001577   
    124. D(H   3,O   2,Mn  0,N   4)      4.4522         0.001577   
    125. D(C   6,N   4,Mn  0,N  23)     54.6825         0.003563   
    126. D(C   6,N   4,Mn  0,N   5)   -133.3361         0.003563   
    127. D(C   6,N   4,Mn  0,O  20)    121.2631         0.003563   
    128. D(C   6,N   4,Mn  0,N  22)    -39.2076         0.003563   
    129. D(C   6,N   4,Mn  0,O   2)    152.2220         0.003563   
    130. D(C   7,N   5,Mn  0,N   4)    -81.8044         0.003023   
    131. D(C   7,N   5,Mn  0,O  20)     63.6422         0.003023   
    132. D(C   7,N   5,Mn  0,O   2)     -6.2725         0.003023   
    133. D(C  14,N   5,Mn  0,N   4)     93.2955         0.003023   
    134. D(C  14,N   5,Mn  0,O   2)    168.8273         0.003023   
    135. D(C   7,N   5,Mn  0,N  23)     27.2629         0.003023   
    136. D(C   7,N   5,Mn  0,N  22)    139.8783         0.003023   
    137. D(C  16,C   7,N   5,C  14)    177.7017         0.037081   
    138. D(C  16,C   7,N   5,Mn  0)     -7.1664         0.037081   
    139. D(C   8,C   7,N   5,Mn  0)    174.7546         0.037081   
    140. D(C   8,C   7,N   5,C  14)     -0.3774         0.037081   
    141. D(C  10,C   8,C   7,C  16)   -177.7366         0.027934   
    142. D(C  10,C   8,C   7,N   5)      0.2857         0.027934   
    143. D(H   9,C   8,C   7,N   5)   -179.3056         0.027934   
    144. D(H   9,C   8,C   7,C  16)      2.6721         0.027934   
    145. D(C  12,C  10,C   8,H   9)    179.4301         0.028478   
    146. D(C  12,C  10,C   8,C   7)     -0.1542         0.028478   
    147. D(H  11,C  10,C   8,H   9)     -0.2114         0.028478   
    148. D(H  11,C  10,C   8,C   7)   -179.7957         0.028478   
    149. D(C  14,C  12,C  10,H  11)    179.7642         0.028051   
    150. D(C  14,C  12,C  10,C   8)      0.1239         0.028051   
    151. D(H  13,C  12,C  10,H  11)     -0.3037         0.028051   
    152. D(H  13,C  12,C  10,C   8)   -179.9440         0.028051   
    153. D(H  15,C  14,C  12,C  10)    178.9534         0.029279   
    154. D(N   5,C  14,C  12,H  13)    179.8398         0.029279   
    155. D(N   5,C  14,C  12,C  10)     -0.2267         0.029279   
    156. D(H  15,C  14,N   5,C   7)   -178.8701         0.037477   
    157. D(H  15,C  14,N   5,Mn  0)      5.9075         0.037477   
    158. D(C  12,C  14,N   5,C   7)      0.3510         0.037477   
    159. D(H  15,C  14,C  12,H  13)     -0.9801         0.029279   
    160. D(C  12,C  14,N   5,Mn  0)   -174.8713         0.037477   
    161. D(H  17,C  16,C   7,C   8)     86.1718         0.012358   
    162. D(O   2,C  16,C   7,C   8)   -156.2184         0.012358   
    163. D(O   2,C  16,C   7,N   5)     25.6869         0.012358   
    164. D(H  18,C  16,O   2,Mn  0)   -151.1798         0.023868   
    165. D(H  18,C  16,C   7,N   5)    150.8936         0.012358   
    166. D(H  17,C  16,O   2,H   3)   -179.7344         0.023868   
    167. D(H  17,C  16,C   7,N   5)    -91.9229         0.012358   
    168. D(H  17,C  16,O   2,Mn  0)     92.2083         0.023868   
    169. D(C   7,C  16,O   2,H   3)     61.0172         0.023868   
    170. D(C   7,C  16,O   2,Mn  0)    -27.0401         0.023868   
    171. D(C  34,O  20,Mn  0,N   4)    -53.2463         0.001583   
    172. D(C  34,O  20,Mn  0,O   2)    -84.7695         0.001583   
    173. D(H  21,O  20,Mn  0,N  23)    -90.6540         0.001583   
    174. D(H  21,O  20,Mn  0,N  22)      4.5454         0.001583   
    175. D(H  21,O  20,Mn  0,N   5)     94.5377         0.001583   
    176. D(H  21,O  20,Mn  0,N   4)   -162.1886         0.001583   
    177. D(H  21,O  20,Mn  0,O   2)    166.2881         0.001583   
    178. D(C  24,N  22,Mn  0,N   5)     76.0865         0.003508   
    179. D(C  24,N  22,Mn  0,N   4)    -17.7532         0.003508   
    180. D(C  24,N  22,Mn  0,O   2)    143.0366         0.003508   
    181. D(C  24,N  22,Mn  0,N  23)   -111.7430         0.003508   
    182. D(C  24,N  22,Mn  0,O  20)    173.8209         0.003508   
    183. D(C  32,N  23,Mn  0,N   4)    -44.5416         0.003008   
    184. D(C  32,N  23,Mn  0,O   2)   -120.9629         0.003008   
    185. D(C  25,N  23,Mn  0,N  22)    -81.5357         0.003008   
    186. D(C  25,N  23,Mn  0,O  20)     -6.2885         0.003008   
    187. D(C  25,N  23,Mn  0,N   5)     31.1157         0.003008   
    188. D(C  25,N  23,Mn  0,N   4)    140.1484         0.003008   
    189. D(C  25,N  23,Mn  0,O   2)     63.7271         0.003008   
    190. D(C  34,C  25,N  23,C  32)    177.7923         0.037114   
    191. D(C  34,C  25,N  23,Mn  0)     -6.8629         0.037114   
    192. D(C  26,C  25,N  23,C  32)     -0.3345         0.037114   
    193. D(C  26,C  25,N  23,Mn  0)    175.0103         0.037114   
    194. D(C  28,C  26,C  25,C  34)   -177.8162         0.027930   
    195. D(C  28,C  26,C  25,N  23)      0.2536         0.027930   
    196. D(H  27,C  26,C  25,C  34)      2.6092         0.027930   
    197. D(H  27,C  26,C  25,N  23)   -179.3209         0.027930   
    198. D(C  30,C  28,C  26,H  27)    179.4051         0.028485   
    199. D(C  30,C  28,C  26,C  25)     -0.1624         0.028485   
    200. D(H  29,C  28,C  26,H  27)     -0.2424         0.028485   
    201. D(H  29,C  28,C  26,C  25)   -179.8099         0.028485   
    202. D(C  32,C  30,C  28,H  29)    179.8058         0.028043   
    203. D(C  32,C  30,C  28,C  26)      0.1596         0.028043   
    204. D(H  31,C  30,C  28,H  29)     -0.3208         0.028043   
    205. D(H  31,C  30,C  28,C  26)   -179.9670         0.028043   
    206. D(H  33,C  32,C  30,H  31)     -0.9209         0.029298   
    207. D(H  33,C  32,C  30,C  28)    178.9552         0.029298   
    208. D(N  23,C  32,C  30,H  31)    179.8717         0.029298   
    209. D(N  23,C  32,C  30,C  28)     -0.2522         0.029298   
    210. D(H  33,C  32,N  23,C  25)   -178.9106         0.037461   
    211. D(H  33,C  32,N  23,Mn  0)      5.6670         0.037461   
    212. D(C  30,C  32,N  23,C  25)      0.3371         0.037461   
    213. D(C  30,C  32,N  23,Mn  0)   -175.0853         0.037461   
    214. D(H  36,C  34,C  25,N  23)    150.2807         0.012346   
    215. D(H  35,C  34,C  25,C  26)     85.5955         0.012346   
    216. D(H  35,C  34,C  25,N  23)    -92.5459         0.012346   
    217. D(O  20,C  34,C  25,C  26)   -156.8273         0.012346   
    218. D(O  20,C  34,C  25,N  23)     25.0314         0.012346   
    219. D(H  36,C  34,O  20,Mn  0)   -150.7435         0.023901   
    220. D(H  35,C  34,O  20,H  21)   -179.4621         0.023901   
    221. D(H  35,C  34,O  20,Mn  0)     92.5941         0.023901   
    222. D(C  25,C  34,O  20,H  21)     61.3604         0.023901   
    223. D(C  25,C  34,O  20,Mn  0)    -26.5834         0.023901   
    -----------------------------------------------------------------

Number of atoms                         .... 37
Number of degrees of freedom            .... 223


         *************************************************************
         *                GEOMETRY OPTIMIZATION CYCLE   1            *
         *************************************************************
---------------------------------
CARTESIAN COORDINATES (ANGSTROEM)
---------------------------------
  Mn     5.726908    1.894727    4.490488
  S      8.438999   -0.130236    1.139659
  O      6.166746    3.835920    3.068284
  H      6.580283    3.171507    2.493566
  N      6.812335    1.148964    2.999366
  N      4.097488    2.037021    3.287128
  C      7.501119    0.608410    2.204675
  C      3.935075    3.072486    2.451991
  C      2.880774    3.119916    1.553814
  H      2.789007    3.968771    0.886451
  C      1.967899    2.081173    1.516663
  H      1.139804    2.101037    0.818247
  C      2.139957    1.015041    2.384304
  H      1.456294    0.176515    2.396496
  C      3.212633    1.032892    3.252052
  H      3.378223    0.230195    3.959565
  C      4.914469    4.211989    2.549516
  H      4.515783    4.959551    3.242121
  H      5.015184    4.690727    1.569210
  S      3.090072   -0.167566    7.867240
  O      5.321175    3.878271    5.843662
  H      4.899141    3.235891    6.437896
  N      4.627861    1.220536    6.010364
  N      7.365493    2.052544    5.681605
  C      3.975211    0.627072    6.798201
  C      7.545241    3.112869    6.481058
  C      8.607015    3.178427    7.369264
  H      8.713583    4.047416    8.007831
  C      9.508757    2.131377    7.433843
  H     10.342613    2.165383    8.124866
  C      9.318350    1.038935    6.603501
  H      9.993039    0.193068    6.613739
  C      8.239521    1.040182    5.743363
  H      8.059028    0.216679    5.063972
  C      6.575752    4.258055    6.353595
  H      6.981712    4.983414    5.641749
  H      6.479057    4.763240    7.320754

----------------------------
CARTESIAN COORDINATES (A.U.)
----------------------------
  NO LB      ZA    FRAG     MASS         X           Y           Z
   0 Mn   25.0000    0    54.940   10.822288    3.580514    8.485792
   1 S    16.0000    0    32.060   15.947396   -0.246110    2.153644
   2 O     8.0000    0    15.999   11.653462    7.248838    5.798217
   3 H     1.0000    0     1.008   12.434932    5.993280    4.712156
   4 N     7.0000    0    14.007   12.873448    2.171228    5.667981
   5 N     7.0000    0    14.007    7.743130    3.849413    6.211772
   6 C     6.0000    0    12.011   14.175060    1.149729    4.166233
   7 C     6.0000    0    12.011    7.436214    5.806156    4.633591
   8 C     6.0000    0    12.011    5.443873    5.895787    2.936282
   9 H     1.0000    0     1.008    5.270459    7.499891    1.675150
  10 C     6.0000    0    12.011    3.718790    3.932846    2.866078
  11 H     1.0000    0     1.008    2.153917    3.970384    1.546263
  12 C     6.0000    0    12.011    4.043933    1.918149    4.505681
  13 H     1.0000    0     1.008    2.751997    0.333565    4.528721
  14 C     6.0000    0    12.011    6.070996    1.951884    6.145487
  15 H     1.0000    0     1.008    6.383917    0.435005    7.482493
  16 C     6.0000    0    12.011    9.287000    7.959506    4.817887
  17 H     1.0000    0     1.008    8.533594    9.372193    6.126721
  18 H     1.0000    0     1.008    9.477325    8.864189    2.965378
  19 S    16.0000    0    32.060    5.839389   -0.316653   14.866929
  20 O     8.0000    0    15.999   10.055563    7.328871   11.042921
  21 H     1.0000    0     1.008    9.258035    6.114947   12.165860
  22 N     7.0000    0    14.007    8.745390    2.306479   11.357942
  23 N     7.0000    0    14.007   13.918765    3.878746   10.736678
  24 C     6.0000    0    12.011    7.512059    1.184995   12.846737
  25 C     6.0000    0    12.011   14.258438    5.882470   12.247425
  26 C     6.0000    0    12.011   16.264901    6.006357   13.925891
  27 H     1.0000    0     1.008   16.466286    7.648507   15.132607
  28 C     6.0000    0    12.011   17.968946    4.027718   14.047927
  29 H     1.0000    0     1.008   19.544706    4.091980   15.353772
  30 C     6.0000    0    12.011   17.609130    1.963302   12.478809
  31 H     1.0000    0     1.008   18.884107    0.364845   12.498155
  32 C     6.0000    0    12.011   15.570437    1.965660   10.853382
  33 H     1.0000    0     1.008   15.229356    0.409464    9.569521
  34 C     6.0000    0    12.011   12.426371    8.046558   12.006555
  35 H     1.0000    0     1.008   13.193524    9.417288   10.661360
  36 H     1.0000    0     1.008   12.243643    9.001219   13.834221

--------------------------------
INTERNAL COORDINATES (ANGSTROEM)
--------------------------------
 Mn     0   0   0     0.000000000000     0.00000000     0.00000000
 S      1   0   0     4.762767868821     0.00000000     0.00000000
 O      1   2   0     2.446293464245    79.97803208     0.00000000
 H      3   1   2     0.970957382487    82.97501731     6.44072189
 N      1   2   3     1.989410953635     4.13750693    27.85878018
 N      1   2   3     2.030598942477    94.00232685    74.16765846
 C      5   1   6     1.182436129039   173.18477511   226.66386756
 C      6   1   2     1.340156248164   121.37822510   275.20454886
 C      8   6   1     1.385829556586   121.50172260   174.75463369
 H      9   8   6     1.083673549237   119.36446893   180.69437143
 C      9   8   6     1.383368625228   119.58631988     0.28566938
 H     11   9   8     1.083476374704   120.52383623   180.20433612
 C     11   9   8     1.385294611948   118.62672598   359.84584209
 H     13  11   9     1.081974498496   121.66956205   180.05598561
 C      6   1   2     1.338833321724   119.55836628    90.30437837
 H     15   6   1     1.082736493218   115.96511798     5.90752760
 C      3   1   2     1.406679700930   105.45526025   115.42656598
 H     17   3   1     1.094303677964   105.87613346    92.20829786
 H     17   3   1     1.095596973426   111.40538619   208.82021838
 S     16  15   6     3.938422334219   135.40044669    70.21916736
 O      1   2   3     2.435190096947   146.31814913   323.35093995
 H     21   1   2     0.971534315445    82.74303973   204.22933670
 N      1   2   3     1.993103828007   134.96590083   170.87644922
 N      1   2   3     2.031902466712    89.21144885   262.02727327
 C     23   1   2     1.182724761478   169.10652627   338.51226072
 C     24   1   2     1.340045940811   121.28873947   143.50323609
 C     26  24   1     1.385847055642   121.50404001   175.01028091
 H     27  26  24     1.083635106224   119.40365755   180.67909281
 C     27  26  24     1.383338115004   119.57350747     0.25361889
 H     29  27  26     1.083506132331   120.50955868   180.19013989
 C     29  27  26     1.385334267690   118.63964562   359.83762016
 H     31  29  27     1.082035374278   121.67408271   180.03300327
 C     24   1   2     1.338885225001   119.65327342   318.81322931
 H     33  24   1     1.082730936079   115.93338050     5.66701307
 C     21   1   2     1.406496430869   105.83023599   313.17168016
 H     35  21   1     1.094383329634   105.90400044    92.59411569
 H     35  21   1     1.095426052902   111.46254865   209.25650001

---------------------------
INTERNAL COORDINATES (A.U.)
---------------------------
 Mn     0   0   0     0.000000000000     0.00000000     0.00000000
 S      1   0   0     9.000326911512     0.00000000     0.00000000
 O      1   2   0     4.622824690625    79.97803208     0.00000000
 H      3   1   2     1.834843540610    82.97501731     6.44072189
 N      1   2   3     3.759441870193     4.13750693    27.85878018
 N      1   2   3     3.837275889112    94.00232685    74.16765846
 C      5   1   6     2.234480454738   173.18477511   226.66386756
 C      6   1   2     2.532528285693   121.37822510   275.20454886
 C      8   6   1     2.618838330241   121.50172260   174.75463369
 H      9   8   6     2.047846226633   119.36446893   180.69437143
 C      9   8   6     2.614187843939   119.58631988     0.28566938
 H     11   9   8     2.047473620764   120.52383623   180.20433612
 C     11   9   8     2.617827431378   118.62672598   359.84584209
 H     13  11   9     2.044635486044   121.66956205   180.05598561
 C      6   1   2     2.530028317026   119.55836628    90.30437837
 H     15   6   1     2.046075447385   115.96511798     5.90752760
 C      3   1   2     2.658239392904   105.45526025   115.42656598
 H     17   3   1     2.067934258694   105.87613346    92.20829786
 H     17   3   1     2.070378232928   111.40538619   208.82021838
 S     16  15   6     7.442539611394   135.40044669    70.21916736
 O      1   2   3     4.601842367266   146.31814913   323.35093995
 H     21   1   2     1.835933785897    82.74303973   204.22933670
 N      1   2   3     3.766420391403   134.96590083   170.87644922
 N      1   2   3     3.839739192925    89.21144885   262.02727327
 C     23   1   2     2.235025891000   169.10652627   338.51226072
 C     24   1   2     2.532319835005   121.28873947   143.50323609
 C     26  24   1     2.618871398665   121.50404001   175.01028091
 H     27  26  24     2.047773579866   119.40365755   180.67909281
 C     27  26  24     2.614130187973   119.57350747     0.25361889
 H     29  27  26     2.047529854529   120.50955868   180.19013989
 C     29  27  26     2.617902369870   118.63964562   359.83762016
 H     31  29  27     2.044750524601   121.67408271   180.03300327
 C     24   1   2     2.530126400006   119.65327342   318.81322931
 H     33  24   1     2.046064945913   115.93338050     5.66701307
 C     21   1   2     2.657893062680   105.83023599   313.17168016
 H     35  21   1     2.068084778537   105.90400044    92.59411569
 H     35  21   1     2.070055239947   111.46254865   209.25650001

---------------------
BASIS SET INFORMATION
---------------------
There are 6 groups of distinct atoms

 Group   1 Type Mn  : 17s11p7d1f contracted to 6s4p4d1f pattern {842111/6311/4111/1}
 Group   2 Type S   : 14s9p3d1f contracted to 5s5p2d1f pattern {73211/51111/21/1}
 Group   3 Type O   : 11s6p2d1f contracted to 5s3p2d1f pattern {62111/411/11/1}
 Group   4 Type H   : 5s1p contracted to 3s1p pattern {311/1}
 Group   5 Type N   : 11s6p2d1f contracted to 5s3p2d1f pattern {62111/411/11/1}
 Group   6 Type C   : 11s6p2d1f contracted to 5s3p2d1f pattern {62111/411/11/1}

Atom   0Mn   basis set group =>   1
Atom   1S    basis set group =>   2
Atom   2O    basis set group =>   3
Atom   3H    basis set group =>   4
Atom   4N    basis set group =>   5
Atom   5N    basis set group =>   5
Atom   6C    basis set group =>   6
Atom   7C    basis set group =>   6
Atom   8C    basis set group =>   6
Atom   9H    basis set group =>   4
Atom  10C    basis set group =>   6
Atom  11H    basis set group =>   4
Atom  12C    basis set group =>   6
Atom  13H    basis set group =>   4
Atom  14C    basis set group =>   6
Atom  15H    basis set group =>   4
Atom  16C    basis set group =>   6
Atom  17H    basis set group =>   4
Atom  18H    basis set group =>   4
Atom  19S    basis set group =>   2
Atom  20O    basis set group =>   3
Atom  21H    basis set group =>   4
Atom  22N    basis set group =>   5
Atom  23N    basis set group =>   5
Atom  24C    basis set group =>   6
Atom  25C    basis set group =>   6
Atom  26C    basis set group =>   6
Atom  27H    basis set group =>   4
Atom  28C    basis set group =>   6
Atom  29H    basis set group =>   4
Atom  30C    basis set group =>   6
Atom  31H    basis set group =>   4
Atom  32C    basis set group =>   6
Atom  33H    basis set group =>   4
Atom  34C    basis set group =>   6
Atom  35H    basis set group =>   4
Atom  36H    basis set group =>   4
---------------------------------
AUXILIARY/J BASIS SET INFORMATION
---------------------------------
There are 6 groups of distinct atoms

 Group   1 Type Mn  : 19s5p5d3f3g contracted to 8s5p5d2f3g pattern {121111111/11111/11111/21/111}
 Group   2 Type S   : 14s5p5d2f1g contracted to 8s4p3d1f1g pattern {71111111/2111/311/2/1}
 Group   3 Type O   : 12s5p4d2f1g contracted to 6s4p3d1f1g pattern {711111/2111/211/2/1}
 Group   4 Type H   : 5s2p1d contracted to 3s1p1d pattern {311/2/1}
 Group   5 Type N   : 12s5p4d2f1g contracted to 6s4p3d1f1g pattern {711111/2111/211/2/1}
 Group   6 Type C   : 12s5p4d2f1g contracted to 6s4p3d1f1g pattern {711111/2111/211/2/1}

Atom   0Mn   basis set group =>   1
Atom   1S    basis set group =>   2
Atom   2O    basis set group =>   3
Atom   3H    basis set group =>   4
Atom   4N    basis set group =>   5
Atom   5N    basis set group =>   5
Atom   6C    basis set group =>   6
Atom   7C    basis set group =>   6
Atom   8C    basis set group =>   6
Atom   9H    basis set group =>   4
Atom  10C    basis set group =>   6
Atom  11H    basis set group =>   4
Atom  12C    basis set group =>   6
Atom  13H    basis set group =>   4
Atom  14C    basis set group =>   6
Atom  15H    basis set group =>   4
Atom  16C    basis set group =>   6
Atom  17H    basis set group =>   4
Atom  18H    basis set group =>   4
Atom  19S    basis set group =>   2
Atom  20O    basis set group =>   3
Atom  21H    basis set group =>   4
Atom  22N    basis set group =>   5
Atom  23N    basis set group =>   5
Atom  24C    basis set group =>   6
Atom  25C    basis set group =>   6
Atom  26C    basis set group =>   6
Atom  27H    basis set group =>   4
Atom  28C    basis set group =>   6
Atom  29H    basis set group =>   4
Atom  30C    basis set group =>   6
Atom  31H    basis set group =>   4
Atom  32C    basis set group =>   6
Atom  33H    basis set group =>   4
Atom  34C    basis set group =>   6
Atom  35H    basis set group =>   4
Atom  36H    basis set group =>   4


           ************************************************************
           *        Program running with 16 parallel MPI-processes    *
           *              working on a common directory               *
           ************************************************************
------------------------------------------------------------------------------
                             ORCA STARTUP CALCULATIONS
                           -- RI-GTO INTEGRALS CHOSEN --
------------------------------------------------------------------------------
------------------------------------------------------------------------------
                   ___                                                        
                  /   \      - P O W E R E D   B Y -                         
                 /     \                                                     
                 |  |  |   _    _      __       _____    __    __             
                 |  |  |  | |  | |    /  \     |  _  \  |  |  /  |          
                  \  \/   | |  | |   /    \    | | | |  |  | /  /          
                 / \  \   | |__| |  /  /\  \   | |_| |  |  |/  /          
                |  |  |   |  __  | /  /__\  \  |    /   |      \           
                |  |  |   | |  | | |   __   |  |    \   |  |\   \          
                \     /   | |  | | |  |  |  |  | |\  \  |  | \   \       
                 \___/    |_|  |_| |__|  |__|  |_| \__\ |__|  \__/        
                                                                              
                      - O R C A' S   B I G   F R I E N D -                    
                                      &                                       
                       - I N T E G R A L  F E E D E R -                       
                                                                              
 v1 FN, 2020, v2 2021, v3 2022-2024                                           
------------------------------------------------------------------------------


----------------------
SHARK INTEGRAL PACKAGE
----------------------

Number of atoms                             ...     37
Number of basis functions                   ...    823
Number of shells                            ...    317
Maximum angular momentum                    ...      3
Integral batch strategy                     ... SHARK/LIBINT Hybrid
RI-J (if used) integral strategy            ... SPLIT-RIJ (Revised 2003 algorithm where possible)
Printlevel                                  ...      1
Contraction scheme used                     ... SEGMENTED contraction
Prescreening option                         ... SCHWARTZ
   Thresh                                   ... 2.500e-11
   Tcut                                     ... 2.500e-12
   Tpresel                                  ... 2.500e-12 
Coulomb Range Separation                    ... NOT USED
Exchange Range Separation                   ... NOT USED
Multipole approximations                    ... NOT USED
Finite Nucleus Model                        ... NOT USED
CABS basis                                  ... NOT available
Auxiliary Coulomb fitting basis             ... AVAILABLE
   # of basis functions in Aux-J            ...   1325
   # of shells in Aux-J                     ...    427
   Maximum angular momentum in Aux-J        ...      4
Auxiliary J/K fitting basis                 ... NOT available
Auxiliary Correlation fitting basis         ... NOT available
Auxiliary 'external' fitting basis          ... NOT available

Checking pre-screening integrals            ... done (  0.0 sec) Dimension = 317
Check shell pair data                       ... done (  0.0 sec)
Shell pair information
Shell pair cut-off parameter TPreSel        ...   2.5e-12
Total number of shell pairs                 ...     50403
Shell pairs after pre-screening             ...     35327
Total number of primitive shell pairs       ...    165638
Primitive shell pairs kept                  ...     73799
          la=0 lb=0:   8460 shell pairs
          la=1 lb=0:   9998 shell pairs
          la=1 lb=1:   3038 shell pairs
          la=2 lb=0:   5213 shell pairs
          la=2 lb=1:   3177 shell pairs
          la=2 lb=2:    876 shell pairs
          la=3 lb=0:   2264 shell pairs
          la=3 lb=1:   1403 shell pairs
          la=3 lb=2:    734 shell pairs
          la=3 lb=3:    164 shell pairs

Calculating one electron integrals          ... done (  0.0 sec)
done (  0.1 sec)
Calculating Nuclear repulsion               ... done (  0.0 sec) ENN=   2658.741603805934 Eh

Diagonalization of the overlap matrix:
Smallest eigenvalue                        ... 2.539e-05
Time for diagonalization                   ...    0.101 sec
Threshold for overlap eigenvalues          ... 1.000e-07
Number of eigenvalues below threshold      ... 0
Time for construction of square roots      ...    0.071 sec
Total time needed                          ...    0.190 sec

-------------------
DFT GRID GENERATION
-------------------

General Integration Accuracy     IntAcc      ... 4.959
Radial Grid Type                 RadialGrid  ... OptM3 with GC (2021)
Angular Grid (max. ang.)         AngularGrid ... 6 (Lebedev-590)
Angular grid pruning method      GridPruning ... 4 (adaptive)
Weight generation scheme         WeightScheme... mBecke (2022)
Basis function cutoff            BFCut       ... 1.0000e-11
Integration weight cutoff        WCut        ... 1.0000e-14
Partially contracted basis set               ... off
Rotationally invariant grid construction     ... off
Angular grids for H and He will be reduced by one unit
Core-polarized basis detected: some atoms will have their core
                               angular grid increased.

Total number of grid points                  ...   462675
Total number of batches                      ...     7250
Average number of points per batch           ...       63
Average number of grid points per atom       ...    12505

--------------------
COSX GRID GENERATION
--------------------

GRIDX 1
-------
General Integration Accuracy     IntAcc      ... 4.020
Radial Grid Type                 RadialGrid  ... OptM3 with GC (2021)
Angular Grid (max. ang.)         AngularGrid ... 2 (Lebedev-110)
Angular grid pruning method      GridPruning ... 4 (adaptive)
Weight generation scheme         WeightScheme... mBecke (2022)
Basis function cutoff            BFCut       ... 1.0000e-11
Integration weight cutoff        WCut        ... 1.0000e-14
Partially contracted basis set               ... on
Rotationally invariant grid construction     ... off
Angular grids for H and He will be reduced by one unit
Core-polarized basis detected: some atoms will have their core
                               angular grid increased.

Total number of grid points                  ...    54651
Total number of batches                      ...      445
Average number of points per batch           ...      122
Average number of grid points per atom       ...     1477
UseSFitting                                  ... on

GRIDX 2
-------
General Integration Accuracy     IntAcc      ... 4.338
Radial Grid Type                 RadialGrid  ... OptM3 with GC (2021)
Angular Grid (max. ang.)         AngularGrid ... 3 (Lebedev-194)
Angular grid pruning method      GridPruning ... 4 (adaptive)
Weight generation scheme         WeightScheme... mBecke (2022)
Basis function cutoff            BFCut       ... 1.0000e-11
Integration weight cutoff        WCut        ... 1.0000e-14
Partially contracted basis set               ... on
Rotationally invariant grid construction     ... off
Angular grids for H and He will be reduced by one unit
Core-polarized basis detected: some atoms will have their core
                               angular grid increased.

Total number of grid points                  ...   114656
Total number of batches                      ...      913
Average number of points per batch           ...      125
Average number of grid points per atom       ...     3099
UseSFitting                                  ... on

GRIDX 3
-------
General Integration Accuracy     IntAcc      ... 4.871
Radial Grid Type                 RadialGrid  ... OptM3 with GC (2021)
Angular Grid (max. ang.)         AngularGrid ... 4 (Lebedev-302)
Angular grid pruning method      GridPruning ... 4 (adaptive)
Weight generation scheme         WeightScheme... mBecke (2022)
Basis function cutoff            BFCut       ... 1.0000e-11
Integration weight cutoff        WCut        ... 1.0000e-14
Partially contracted basis set               ... on
Rotationally invariant grid construction     ... off
Angular grids for H and He will be reduced by one unit
Core-polarized basis detected: some atoms will have their core
                               angular grid increased.

Total number of grid points                  ...   212184
Total number of batches                      ...     1676
Average number of points per batch           ...      126
Average number of grid points per atom       ...     5735
UseSFitting                                  ... on
Initializing property integral containers    ... done (  0.0 sec)

SHARK setup successfully completed in   7.0 seconds

Maximum memory used throughout the entire STARTUP-calculation: 137.7 MB


           ************************************************************
           *        Program running with 16 parallel MPI-processes    *
           *              working on a common directory               *
           ************************************************************
-------------------------------------------------------------------------------
                                 ORCA GUESS
                   Start orbitals & Density for SCF / CASSCF
-------------------------------------------------------------------------------

------------
SCF SETTINGS
------------
Hamiltonian:
 Density Functional     Method          .... DFT(GTOs)
 Exchange Functional    Exchange        .... PBE
   PBE kappa parameter   XKappa         ....  0.804000
   PBE mue parameter    XMuePBE         ....  0.219520
 Correlation Functional Correlation     .... PBE
   PBE beta parameter  CBetaPBE         ....  0.066725
 LDA part of GGA corr.  LDAOpt          .... PW91-LDA
 Gradients option       PostSCFGGA      .... off
 Hybrid DFT is turned on
   Fraction HF Exchange ScalHFX         ....  0.250000
   Scaling of DF-GGA-X  ScalDFX         ....  0.750000
   Scaling of DF-GGA-C  ScalDFC         ....  1.000000
   Scaling of DF-LDA-C  ScalLDAC        ....  1.000000
   Perturbative correction              ....  0.000000
   NL short-range parameter             ....  6.900000
 RI-approximation to the Coulomb term is turned on
   Number of AuxJ basis functions       .... 1325
   RIJ-COSX (HFX calculated with COS-X)).... on


General Settings:
 Integral files         IntName         .... XAKDOE01-S6
 Hartree-Fock type      HFTyp           .... UHF
 Total Charge           Charge          ....    0
 Multiplicity           Mult            ....    4
 Number of Electrons    NEL             ....  199
 Basis Dimension        Dim             ....  823
 Nuclear Repulsion      ENuc            ....   2658.7416038059 Eh

Convergence Acceleration:
 AO-DIIS                CNVDIIS         .... on
   Start iteration      DIISMaxIt       ....     0
   Startup error        DIISStart       ....  0.200000
   # of expansion vecs  DIISMaxEq       ....     5
   Bias factor          DIISBfac        ....   1.050
   Max. coefficient     DIISMaxC        ....  10.000
 MO-DIIS                CNVKDIIS        .... off
 Trust-Rad. Augm. Hess. CNVTRAH         .... auto
   Auto Start mean grad. ratio tolernc. ....  1.125000
   Auto Start start iteration           ....    50
   Auto Start num. interpolation iter.  ....    10
   Max. Number of Micro iterations      ....    24
   Max. Number of Macro iterations      .... Maxiter - #DIIS iter
   Number of Davidson start vectors     ....     2
   Converg. threshold    (grad. norm)   ....   1.000e-05
   Grad. Scal. Fac. for Micro threshold ....   0.100
   Minimum threshold for Micro iter.    ....   1.000e-02
   NR start threshold (gradient norm)   ....   1.000e-04
   Initial trust radius                 ....   0.400
   Minimum AH scaling param. (alpha)    ....   1.000
   Maximum AH scaling param. (alpha)    .... 1000.000
   Quad. conv. algorithm                .... NR
   White noise on init. David. guess    .... on
   Maximum white noise                  ....   0.010
   Pseudo random numbers                .... off
   Inactive MOs                         .... canonical
   Orbital update algorithm             .... Taylor
   Preconditioner                       .... Diag
   Full preconditioner red. dimension   ....   250
 SOSCF                  CNVSOSCF        .... on
   Start iteration      SOSCFMaxIt      ....   150
   Startup grad/error   SOSCFStart      ....  0.001000
   Hessian update       SOSCFHessUp     .... L-BFGS
 Level Shifting         CNVShift        .... on
   Level shift para.    LevelShift      ....    0.2500
   Turn off err/grad.   ShiftErr        ....    0.0000
 Zerner damping         CNVZerner       .... off
 Static damping         CNVDamp         .... on
   Fraction old density DampFac         ....    0.8500
   Max. Damping (<1)    DampMax         ....    0.9800
   Min. Damping (>=0)   DampMin         ....    0.0000
   Turn off err/grad.   DampErr         ....    0.0300

SCF Procedure:
 Maximum # iterations   MaxIter         ....   125
 SCF integral mode      SCFMode         .... Direct
   Integral package                     .... SHARK and LIBINT hybrid scheme
 Reset frequency        DirectResetFreq ....    20
 Integral Threshold     Thresh          ....  2.500e-11 Eh
 Primitive CutOff       TCut            ....  2.500e-12 Eh

Convergence Tolerance:
 Convergence Check Mode ConvCheckMode   .... Total+1el-Energy
 Convergence forced     ConvForced      .... 0
 Energy Change          TolE            ....  1.000e-08 Eh
 1-El. energy change                    ....  1.000e-05 Eh
 Orbital Gradient       TolG            ....  1.000e-05
 Orbital Rotation angle TolX            ....  1.000e-05
 DIIS Error             TolErr          ....  5.000e-07

------------------------------
INITIAL GUESS: MODEL POTENTIAL
------------------------------
Loading Hartree-Fock densities                     ... done
Calculating cut-offs                               ... done
Initializing the effective Hamiltonian             ... done
Setting up the integral package (SHARK)            ... done
done (   0.2 sec)
Making the grid                                    ... done (   0.2 sec)
Mapping shells                                     ... done
Starting the XC term evaluation                    ... done (   0.1 sec)
  promolecular density results
     # of electrons  =    198.974593477
     EX              =   -218.698174597
     EC              =     -7.111380484
     EX+EC           =   -225.809555081
Transforming the Hamiltonian                       ... done (   0.1 sec)
done (   0.1 sec)
Back transforming the eigenvectors                 ... done (   0.1 sec)
done
                      ------------------
                      INITIAL GUESS DONE (   1.0 sec)
                      ------------------
             **** ENERGY FILE WAS UPDATED (XAKDOE01-S6.en.tmp) ****
Finished Guess after   1.4 sec
Maximum memory used throughout the entire GUESS-calculation: 67.8 MB


           ************************************************************
           *        Program running with 16 parallel MPI-processes    *
           *              working on a common directory               *
           ************************************************************

-------------------------------------------------------------------------------------------
                                      ORCA LEAN-SCF
                              memory conserving SCF solver
-------------------------------------------------------------------------------------------

----------------------------------------D-I-I-S--------------------------------------------
Iteration    Energy (Eh)           Delta-E    RMSDP     MaxDP     DIISErr   Damp  Time(sec)
-------------------------------------------------------------------------------------------
               ***  Starting incremental Fock matrix formation  ***
    1    -2856.9924661264021779     0.00e+00  2.58e-04  2.81e-02  1.40e-01  0.850  14.3
Warning: op=1 Small HOMO/LUMO gap (   0.096) - skipping pre-diagonalization
         Will do a full diagonalization
    2    -2857.1933662412966441    -2.01e-01  2.81e-04  1.73e-02  9.63e-02  0.850   8.2
                               ***Turning on AO-DIIS***
    3    -2857.3047832742386163    -1.11e-01  1.57e-04  1.13e-02  5.71e-02  0.850   7.2
    4    -2857.3742901843097570    -6.95e-02  1.03e-04  1.02e-02  4.29e-02  0.850   6.9
    5    -2857.4249478517267562    -5.07e-02  7.71e-05  7.90e-03  3.67e-02  0.850   6.7
    6    -2857.4655720616983672    -4.06e-02  6.35e-05  6.21e-03  3.25e-02  0.850   6.5
    7    -2857.4997110410686219    -3.41e-02  5.51e-05  5.04e-03  2.81e-02  0.850   6.4
    8    -2857.5288610293937381    -2.91e-02  3.22e-04  3.29e-02  2.30e-02  0.000   6.4
    9    -2857.6834255369331004    -1.55e-01  5.63e-05  4.76e-03  5.94e-03  0.000   7.3
   10    -2857.6839143127062925    -4.89e-04  2.35e-05  3.03e-03  4.86e-03  0.000   6.3
   11    -2857.6845568892040319    -6.43e-04  1.30e-05  2.00e-03  2.56e-03  0.000   6.0
   12    -2857.6847070531985082    -1.50e-04  9.48e-06  1.93e-03  1.61e-03  0.000   5.7
   13    -2857.6847707012202591    -6.36e-05  7.54e-06  1.17e-03  1.20e-03  0.000   5.7
                              *** Initializing SOSCF ***
---------------------------------------S-O-S-C-F--------------------------------------
Iteration    Energy (Eh)           Delta-E    RMSDP     MaxDP     MaxGrad    Time(sec)
--------------------------------------------------------------------------------------
   14    -2857.6848089398608863    -3.82e-05  5.17e-06  1.09e-03  9.00e-04     6.1
               *** Restarting incremental Fock matrix formation ***
   15    -2857.6848271095177552    -1.82e-05  1.26e-05  2.03e-03  8.12e-04    13.9
   16    -2857.6848569336161745    -2.98e-05  2.99e-05  6.07e-03  5.06e-04     9.0
   17    -2857.6848650083547909    -8.07e-06  1.10e-05  7.08e-04  8.57e-04     9.8
   18    -2857.6848856965070809    -2.07e-05  1.09e-05  1.51e-03  7.16e-04     8.9
   19    -2857.6848827261392216     2.97e-06  5.96e-06  1.08e-03  7.04e-04     9.0
   20    -2857.6848962287558606    -1.35e-05  6.77e-06  1.09e-03  2.19e-04     8.4
   21    -2857.6848971777262705    -9.49e-07  3.77e-06  5.90e-04  2.63e-04     8.4
   22    -2857.6849028531505610    -5.68e-06  6.55e-06  1.22e-03  2.02e-04     7.8
   23    -2857.6849061151988280    -3.26e-06  7.85e-06  1.45e-03  1.16e-04     8.2
   24    -2857.6849081594491508    -2.04e-06  3.42e-06  6.06e-04  9.70e-05     8.4
   25    -2857.6849090846271793    -9.25e-07  2.36e-06  3.51e-04  1.01e-04     8.0
   26    -2857.6849096104124328    -5.26e-07  1.54e-06  3.14e-04  8.06e-05     7.6
   27    -2857.6849099458913770    -3.35e-07  1.72e-06  3.48e-04  5.60e-05     7.0
   28    -2857.6849101428797439    -1.97e-07  8.29e-07  7.58e-05  2.51e-05     7.1
   29    -2857.6849101390571377     3.82e-09  4.71e-07  2.80e-05  1.57e-05     6.6
                 **** Energy Check signals convergence ****

               *****************************************************
               *                     SUCCESS                       *
               *           SCF CONVERGED AFTER  29 CYCLES          *
               *****************************************************

 done (   19.057 sec)
Old exchange energy                            :    -55.361803909 Eh
New exchange energy                            :    -55.361815630 Eh
Exchange energy change after final integration :     -0.000011721 Eh
Total energy after final integration           :  -2857.684921860 Eh
             **** ENERGY FILE WAS UPDATED (XAKDOE01-S6.en.tmp) ****

----------------
TOTAL SCF ENERGY
----------------

Total Energy       :      -2857.68492185961350 Eh          -77761.56005 eV

Components:
Nuclear Repulsion  :       2658.74160380593366 Eh           72348.03714 eV
Electronic Energy  :      -5516.42651394499080 Eh         -150109.59687 eV
One Electron Energy:      -9220.92032937326439 Eh         -250913.99838 eV
Two Electron Energy:       3704.49381542827359 Eh          100804.40151 eV

Virial components:
Potential Energy   :      -5708.62467140193712 Eh         -155339.57462 eV
Kinetic Energy     :       2850.93974954232363 Eh           77578.01458 eV
Virial Ratio       :          2.00236594698936

DFT components:
N(Alpha)           :      100.999975463755 electrons
N(Beta)            :       97.999975418318 electrons
N(Total)           :      198.999950882073 electrons
E(X)               :     -165.703827270395 Eh       
E(C)               :       -7.114771823339 Eh       
E(XC)              :     -172.818599093734 Eh       

---------------
SCF CONVERGENCE
---------------

  Last Energy change         ...   -3.8226e-09  Tolerance :   1.0000e-08
  Last MAX-Density change    ...    2.7960e-05  Tolerance :   1.0000e-07
  Last RMS-Density change    ...    4.7092e-07  Tolerance :   5.0000e-09
  Last DIIS Error            ...    8.9973e-04  Tolerance :   5.0000e-07
  Last Orbital Gradient      ...    1.5711e-05  Tolerance :   1.0000e-05
  Last Orbital Rotation      ...    8.0932e-05  Tolerance :   1.0000e-05


----------------------
UHF SPIN CONTAMINATION
----------------------

Warning: in a DFT calculation there is little theoretical justification to 
         calculate <S**2> as in Hartree-Fock theory. We will do it anyways
         but you should keep in mind that the values have only limited relevance

Expectation value of <S**2>     :     3.815797
Ideal value S*(S+1) for S=1.5   :     3.750000
Deviation                       :     0.065797

----------------
ORBITAL ENERGIES
----------------
                 SPIN UP ORBITALS
  NO   OCC          E(Eh)            E(eV) 
   0   1.0000    -235.748483     -6415.0424 
   1   1.0000     -88.970981     -2421.0235 
   2   1.0000     -88.970788     -2421.0182 
   3   1.0000     -27.434445      -746.5292 
   4   1.0000     -23.482805      -638.9996 
   5   1.0000     -23.471237      -638.6848 
   6   1.0000     -23.464430      -638.4996 
   7   1.0000     -19.247491      -523.7509 
   8   1.0000     -19.247470      -523.7503 
   9   1.0000     -14.446892      -393.1199 
  10   1.0000     -14.446836      -393.1184 
  11   1.0000     -14.358177      -390.7059 
  12   1.0000     -14.357702      -390.6929 
  13   1.0000     -10.306876      -280.4644 
  14   1.0000     -10.306729      -280.4604 
  15   1.0000     -10.305426      -280.4249 
  16   1.0000     -10.305165      -280.4178 
  17   1.0000     -10.291929      -280.0576 
  18   1.0000     -10.291784      -280.0537 
  19   1.0000     -10.274273      -279.5772 
  20   1.0000     -10.273982      -279.5693 
  21   1.0000     -10.273509      -279.5564 
  22   1.0000     -10.273448      -279.5547 
  23   1.0000     -10.266731      -279.3720 
  24   1.0000     -10.266600      -279.3684 
  25   1.0000     -10.262265      -279.2504 
  26   1.0000     -10.262190      -279.2484 
  27   1.0000      -7.950894      -216.3548 
  28   1.0000      -7.950696      -216.3494 
  29   1.0000      -5.887606      -160.2099 
  30   1.0000      -5.887424      -160.2049 
  31   1.0000      -5.882006      -160.0575 
  32   1.0000      -5.881794      -160.0518 
  33   1.0000      -5.881288      -160.0380 
  34   1.0000      -5.881085      -160.0324 
  35   1.0000      -3.270311       -88.9897 
  36   1.0000      -2.152796       -58.5805 
  37   1.0000      -2.108650       -57.3793 
  38   1.0000      -2.099350       -57.1262 
  39   1.0000      -1.100167       -29.9371 
  40   1.0000      -1.096391       -29.8343 
  41   1.0000      -1.022524       -27.8243 
  42   1.0000      -1.021528       -27.7972 
  43   1.0000      -0.918943       -25.0057 
  44   1.0000      -0.917804       -24.9747 
  45   1.0000      -0.867900       -23.6167 
  46   1.0000      -0.867121       -23.5956 
  47   1.0000      -0.842703       -22.9311 
  48   1.0000      -0.842136       -22.9157 
  49   1.0000      -0.750774       -20.4296 
  50   1.0000      -0.750344       -20.4179 
  51   1.0000      -0.741738       -20.1837 
  52   1.0000      -0.741420       -20.1751 
  53   1.0000      -0.693299       -18.8656 
  54   1.0000      -0.693131       -18.8610 
  55   1.0000      -0.668479       -18.1902 
  56   1.0000      -0.667925       -18.1752 
  57   1.0000      -0.593234       -16.1427 
  58   1.0000      -0.586512       -15.9598 
  59   1.0000      -0.567534       -15.4434 
  60   1.0000      -0.563770       -15.3409 
  61   1.0000      -0.531828       -14.4718 
  62   1.0000      -0.528979       -14.3943 
  63   1.0000      -0.519921       -14.1478 
  64   1.0000      -0.511454       -13.9174 
  65   1.0000      -0.504188       -13.7197 
  66   1.0000      -0.498100       -13.5540 
  67   1.0000      -0.497309       -13.5325 
  68   1.0000      -0.483023       -13.1437 
  69   1.0000      -0.481048       -13.0900 
  70   1.0000      -0.472105       -12.8466 
  71   1.0000      -0.464050       -12.6275 
  72   1.0000      -0.463225       -12.6050 
  73   1.0000      -0.454118       -12.3572 
  74   1.0000      -0.447731       -12.1834 
  75   1.0000      -0.424934       -11.5631 
  76   1.0000      -0.422990       -11.5101 
  77   1.0000      -0.405544       -11.0354 
  78   1.0000      -0.403267       -10.9735 
  79   1.0000      -0.397667       -10.8211 
  80   1.0000      -0.395114       -10.7516 
  81   1.0000      -0.387367       -10.5408 
  82   1.0000      -0.382349       -10.4042 
  83   1.0000      -0.379432       -10.3249 
  84   1.0000      -0.375524       -10.2185 
  85   1.0000      -0.374690       -10.1958 
  86   1.0000      -0.354251        -9.6397 
  87   1.0000      -0.352987        -9.6053 
  88   1.0000      -0.352087        -9.5808 
  89   1.0000      -0.343599        -9.3498 
  90   1.0000      -0.343400        -9.3444 
  91   1.0000      -0.307294        -8.3619 
  92   1.0000      -0.305187        -8.3046 
  93   1.0000      -0.302932        -8.2432 
  94   1.0000      -0.287284        -7.8174 
  95   1.0000      -0.277876        -7.5614 
  96   1.0000      -0.269080        -7.3220 
  97   1.0000      -0.223533        -6.0826 
  98   1.0000      -0.222154        -6.0451 
  99   1.0000      -0.217006        -5.9050 
 100   1.0000      -0.214105        -5.8261 
 101   0.0000      -0.066627        -1.8130 
 102   0.0000      -0.066342        -1.8053 
 103   0.0000      -0.046420        -1.2632 
 104   0.0000      -0.045187        -1.2296 
 105   0.0000      -0.037272        -1.0142 
 106   0.0000       0.016428         0.4470 
 107   0.0000       0.033637         0.9153 
 108   0.0000       0.036337         0.9888 
 109   0.0000       0.046022         1.2523 
 110   0.0000       0.047246         1.2856 
 111   0.0000       0.052360         1.4248 

                 SPIN DOWN ORBITALS
  NO   OCC          E(Eh)            E(eV) 
   0   1.0000    -235.747661     -6415.0200 
   1   1.0000     -88.970813     -2421.0189 
   2   1.0000     -88.970624     -2421.0138 
   3   1.0000     -27.378481      -745.0063 
   4   1.0000     -23.435125      -637.7022 
   5   1.0000     -23.424792      -637.4210 
   6   1.0000     -23.416877      -637.2056 
   7   1.0000     -19.246605      -523.7268 
   8   1.0000     -19.246588      -523.7263 
   9   1.0000     -14.447625      -393.1399 
  10   1.0000     -14.447551      -393.1378 
  11   1.0000     -14.358572      -390.7166 
  12   1.0000     -14.358081      -390.7033 
  13   1.0000     -10.306877      -280.4644 
  14   1.0000     -10.306729      -280.4603 
  15   1.0000     -10.305661      -280.4313 
  16   1.0000     -10.305427      -280.4249 
  17   1.0000     -10.292105      -280.0624 
  18   1.0000     -10.291982      -280.0591 
  19   1.0000     -10.274611      -279.5864 
  20   1.0000     -10.274351      -279.5793 
  21   1.0000     -10.273201      -279.5480 
  22   1.0000     -10.273161      -279.5469 
  23   1.0000     -10.266622      -279.3690 
  24   1.0000     -10.266476      -279.3650 
  25   1.0000     -10.262105      -279.2461 
  26   1.0000     -10.262014      -279.2436 
  27   1.0000      -7.950739      -216.3506 
  28   1.0000      -7.950547      -216.3454 
  29   1.0000      -5.887526      -160.2077 
  30   1.0000      -5.887344      -160.2028 
  31   1.0000      -5.881487      -160.0434 
  32   1.0000      -5.881281      -160.0378 
  33   1.0000      -5.881154      -160.0343 
  34   1.0000      -5.880967      -160.0292 
  35   1.0000      -3.123814       -85.0033 
  36   1.0000      -1.987263       -54.0762 
  37   1.0000      -1.967568       -53.5402 
  38   1.0000      -1.932458       -52.5849 
  39   1.0000      -1.098724       -29.8978 
  40   1.0000      -1.094967       -29.7956 
  41   1.0000      -1.023009       -27.8375 
  42   1.0000      -1.022052       -27.8115 
  43   1.0000      -0.918198       -24.9854 
  44   1.0000      -0.917055       -24.9543 
  45   1.0000      -0.868266       -23.6267 
  46   1.0000      -0.867552       -23.6073 
  47   1.0000      -0.842945       -22.9377 
  48   1.0000      -0.842421       -22.9234 
  49   1.0000      -0.750650       -20.4262 
  50   1.0000      -0.750216       -20.4144 
  51   1.0000      -0.741389       -20.1742 
  52   1.0000      -0.741084       -20.1659 
  53   1.0000      -0.693399       -18.8683 
  54   1.0000      -0.693256       -18.8645 
  55   1.0000      -0.668610       -18.1938 
  56   1.0000      -0.668175       -18.1820 
  57   1.0000      -0.592631       -16.1263 
  58   1.0000      -0.586518       -15.9600 
  59   1.0000      -0.567098       -15.4315 
  60   1.0000      -0.563365       -15.3299 
  61   1.0000      -0.531705       -14.4684 
  62   1.0000      -0.528934       -14.3930 
  63   1.0000      -0.518919       -14.1205 
  64   1.0000      -0.510937       -13.9033 
  65   1.0000      -0.504087       -13.7169 
  66   1.0000      -0.497979       -13.5507 
  67   1.0000      -0.493414       -13.4265 
  68   1.0000      -0.482564       -13.1312 
  69   1.0000      -0.479582       -13.0501 
  70   1.0000      -0.467901       -12.7322 
  71   1.0000      -0.463729       -12.6187 
  72   1.0000      -0.461101       -12.5472 
  73   1.0000      -0.452985       -12.3264 
  74   1.0000      -0.444701       -12.1009 
  75   1.0000      -0.424362       -11.5475 
  76   1.0000      -0.422556       -11.4983 
  77   1.0000      -0.402863       -10.9625 
  78   1.0000      -0.397972       -10.8294 
  79   1.0000      -0.395902       -10.7730 
  80   1.0000      -0.392837       -10.6897 
  81   1.0000      -0.381360       -10.3773 
  82   1.0000      -0.377991       -10.2857 
  83   1.0000      -0.374886       -10.2012 
  84   1.0000      -0.374287       -10.1849 
  85   1.0000      -0.367006        -9.9867 
  86   1.0000      -0.351309        -9.5596 
  87   1.0000      -0.346931        -9.4405 
  88   1.0000      -0.343435        -9.3453 
  89   1.0000      -0.342620        -9.3232 
  90   1.0000      -0.338066        -9.1992 
  91   1.0000      -0.304554        -8.2873 
  92   1.0000      -0.303298        -8.2532 
  93   1.0000      -0.235041        -6.3958 
  94   1.0000      -0.227958        -6.2031 
  95   1.0000      -0.226670        -6.1680 
  96   1.0000      -0.223869        -6.0918 
  97   1.0000      -0.175931        -4.7873 
  98   0.0000      -0.073955        -2.0124 
  99   0.0000      -0.061024        -1.6606 
 100   0.0000      -0.047947        -1.3047 
 101   0.0000      -0.046078        -1.2538 
 102   0.0000      -0.019827        -0.5395 
 103   0.0000      -0.018102        -0.4926 
 104   0.0000      -0.004509        -0.1227 
 105   0.0000       0.017989         0.4895 
 106   0.0000       0.026485         0.7207 
 107   0.0000       0.036659         0.9976 
 108   0.0000       0.048319         1.3148 
*Only the first 10 virtual orbitals were printed.

                    ********************************
                    * MULLIKEN POPULATION ANALYSIS *
                    ********************************

--------------------------------------------
MULLIKEN ATOMIC CHARGES AND SPIN POPULATIONS
--------------------------------------------
   0 Mn:    0.305210    3.151205
   1 S :   -0.301930    0.027762
   2 O :   -0.397707    0.004213
   3 H :    0.343055    0.001467
   4 N :   -0.318649   -0.042794
   5 N :   -0.028828   -0.053180
   6 C :    0.025297    0.011639
   7 C :    0.096401   -0.014316
   8 C :   -0.202871    0.010837
   9 H :    0.136346   -0.000615
  10 C :   -0.099344   -0.024339
  11 H :    0.140586    0.001663
  12 C :   -0.104956    0.010893
  13 H :    0.144806   -0.000537
  14 C :   -0.000815   -0.013969
  15 H :    0.167248    0.000554
  16 C :   -0.013182    0.002913
  17 H :    0.126860   -0.001255
  18 H :    0.138722    0.000151
  19 S :   -0.301137    0.028695
  20 O :   -0.397287    0.004259
  21 H :    0.343586    0.001536
  22 N :   -0.326818   -0.041977
  23 N :   -0.029293   -0.053837
  24 C :    0.023496    0.013528
  25 C :    0.096718   -0.012498
  26 C :   -0.203651    0.009786
  27 H :    0.136433   -0.000562
  28 C :   -0.098439   -0.022288
  29 H :    0.140702    0.001526
  30 C :   -0.104375    0.009867
  31 H :    0.144854   -0.000497
  32 C :   -0.001530   -0.012231
  33 H :    0.167842    0.000652
[...]
 57:    982.76   0.000161    0.81  0.000051  ( 0.006532 -0.001712  0.002343)
 58:    983.20   0.001360    6.87  0.000432  ( 0.019644  0.000574  0.006737)
 59:   1003.34   0.003278   16.57  0.001020  ( 0.028847 -0.000087  0.013690)
 60:   1003.96   0.000207    1.05  0.000064  ( 0.007254  0.000661  0.003366)
 61:   1015.77   0.000283    1.43  0.000087  (-0.008735  0.000592 -0.003195)
 62:   1015.92   0.000055    0.28  0.000017  (-0.003594 -0.001521 -0.001286)
 63:   1048.39   0.001993   10.07  0.000593  (-0.009071 -0.000204 -0.022604)
 64:   1052.69   0.000073    0.37  0.000022  ( 0.000016 -0.004665  0.000111)
 65:   1087.02   0.007256   36.67  0.002083  ( 0.040185 -0.003307  0.021388)
 66:   1087.52   0.000993    5.02  0.000285  ( 0.011487  0.010738  0.006144)
 67:   1110.21   0.012240   61.86  0.003440  ( 0.056064 -0.012280  0.012103)
 68:   1111.47   0.007283   36.81  0.002045  (-0.041017 -0.017021 -0.008527)
 69:   1139.55   0.001444    7.30  0.000395  ( 0.016718 -0.000458  0.010760)
 70:   1140.22   0.000162    0.82  0.000044  ( 0.002246  0.006145  0.001219)
 71:   1180.04   0.000557    2.81  0.000147  ( 0.006041  0.002053 -0.010323)
 72:   1180.06   0.001676    8.47  0.000443  ( 0.000614 -0.021021 -0.000968)
 73:   1225.55   0.002646   13.37  0.000674  (-0.011143  0.023357 -0.002034)
 74:   1226.83   0.002417   12.21  0.000615  (-0.021589 -0.011782 -0.003147)
 75:   1259.23   0.001955    9.88  0.000485  ( 0.020373  0.004970  0.006690)
 76:   1259.60   0.001244    6.29  0.000308  ( 0.005722 -0.016488  0.001911)
 77:   1314.32   0.001547    7.82  0.000367  (-0.013643 -0.000273 -0.013458)
 78:   1315.77   0.000309    1.56  0.000073  ( 0.000442 -0.008518  0.000656)
 79:   1324.88   0.000726    3.67  0.000171  ( 0.002029  0.009063 -0.009211)
 80:   1325.02   0.001172    5.92  0.000276  (-0.001353  0.015846  0.004814)
 81:   1389.22   0.001098    5.55  0.000247  ( 0.015672 -0.000213  0.001012)
 82:   1391.85   0.000046    0.23  0.000010  (-0.000531 -0.003154  0.000153)
 83:   1412.07   0.009547   48.25  0.002110  (-0.045588  0.000045  0.005621)
 84:   1414.72   0.000085    0.43  0.000019  ( 0.004255 -0.000557 -0.000589)
 85:   1476.78   0.006568   33.19  0.001388  (-0.000219 -0.037233 -0.001258)
 86:   1477.17   0.002783   14.06  0.000588  ( 0.003379 -0.001724  0.023949)
 87:   1483.74   0.003176   16.05  0.000668  (-0.000480 -0.025842 -0.000195)
 88:   1484.41   0.004671   23.61  0.000982  ( 0.016331 -0.000584  0.026740)
 89:   1526.14   0.004800   24.26  0.000982  ( 0.026790  0.004164  0.015702)
 90:   1526.64   0.003652   18.45  0.000746  (-0.003839  0.026931 -0.002530)
 91:   1634.52   0.001015    5.13  0.000194  ( 0.007203  0.000972 -0.011872)
 92:   1635.01   0.001944    9.83  0.000371  (-0.000432  0.019250  0.000596)
 93:   1670.01   0.001750    8.85  0.000327  (-0.001354 -0.000144  0.018034)
 94:   1671.74   0.001520    7.68  0.000284  ( 0.000313 -0.016842 -0.000090)
 95:   2129.23   0.440928  2228.27  0.064623  ( 0.152186  0.000040 -0.203624)
 96:   2140.12   0.112923  570.67  0.016466  ( 0.002481 -0.128282 -0.001884)
 97:   3044.08   0.006498   32.84  0.000666  (-0.011614 -0.017647 -0.014828)
 98:   3045.32   0.006413   32.41  0.000657  (-0.010359  0.019055 -0.013667)
 99:   3089.17   0.000917    4.63  0.000093  ( 0.003469 -0.001034 -0.008917)
100:   3090.47   0.001524    7.70  0.000154  (-0.004386 -0.000866  0.011571)
101:   3200.47   0.000195    0.98  0.000019  ( 0.001804 -0.002681 -0.002921)
102:   3200.57   0.000415    2.10  0.000040  ( 0.000744  0.006174 -0.001337)
103:   3214.06   0.000511    2.58  0.000050  ( 0.002986  0.003521  0.005316)
104:   3214.08   0.000442    2.23  0.000043  ( 0.001879 -0.005170  0.003556)
105:   3221.47   0.000047    0.24  0.000005  (-0.001630  0.001316  0.000432)
106:   3221.73   0.000043    0.21  0.000004  ( 0.001295  0.001492 -0.000465)
107:   3235.20   0.000394    1.99  0.000038  (-0.004589 -0.001904 -0.003647)
108:   3235.37   0.000284    1.44  0.000027  (-0.003627  0.002340 -0.002962)
109:   3673.76   0.043183  218.23  0.003668  (-0.044036 -0.036930  0.019109)
110:   3679.61   0.041304  208.73  0.003503  (-0.033159  0.047022  0.013869)

* The epsilon (eps) is given for a Dirac delta lineshape.
** The dipole moment derivative (T) already includes vibrational overlap.

The first frequency considered to be a vibration is 6
The total number of vibrations considered is 105


--------------------------
THERMOCHEMISTRY AT 298.15K
--------------------------

Temperature         ...   298.15 K
Pressure            ...     1.00 atm
Total Mass          ...   389.35 AMU
Quasi RRHO          ...     True
Cut-Off Frequency   ...     1.00 cm^-1

Throughout the following assumptions are being made:
  (1) The electronic state is orbitally nondegenerate
      but the spin degeneracy is treated
  (2) There are no thermally accessible electronically excited states
  (3) Hindered rotations indicated by low frequency modes are not
      treated as such but are treated as vibrations and this may
      cause some error
  (4) All equations used are the standard statistical mechanics
      equations for an ideal gas
  (5) All vibrations are strictly harmonic

freq.      17.32  E(vib)   ...       0.57 
freq.      19.07  E(vib)   ...       0.57 
freq.      19.10  E(vib)   ...       0.57 
freq.      33.16  E(vib)   ...       0.55 
freq.      35.78  E(vib)   ...       0.54 
freq.      40.38  E(vib)   ...       0.54 
freq.      55.54  E(vib)   ...       0.52 
freq.      72.37  E(vib)   ...       0.50 
freq.      92.79  E(vib)   ...       0.47 
freq.     108.13  E(vib)   ...       0.45 
freq.     142.28  E(vib)   ...       0.41 
freq.     148.13  E(vib)   ...       0.41 
freq.     155.13  E(vib)   ...       0.40 
freq.     185.58  E(vib)   ...       0.37 
freq.     188.42  E(vib)   ...       0.36 
freq.     197.14  E(vib)   ...       0.35 
freq.     200.22  E(vib)   ...       0.35 
freq.     208.28  E(vib)   ...       0.34 
freq.     212.11  E(vib)   ...       0.34 
freq.     215.31  E(vib)   ...       0.34 
freq.     242.67  E(vib)   ...       0.31 
freq.     281.07  E(vib)   ...       0.28 
freq.     299.52  E(vib)   ...       0.26 
freq.     310.38  E(vib)   ...       0.26 
freq.     344.85  E(vib)   ...       0.23 
freq.     423.75  E(vib)   ...       0.18 
freq.     428.69  E(vib)   ...       0.18 
freq.     447.55  E(vib)   ...       0.17 
freq.     462.68  E(vib)   ...       0.16 
freq.     485.43  E(vib)   ...       0.15 
freq.     491.48  E(vib)   ...       0.14 
freq.     503.74  E(vib)   ...       0.14 
freq.     504.34  E(vib)   ...       0.14 
freq.     515.19  E(vib)   ...       0.13 
freq.     517.70  E(vib)   ...       0.13 
freq.     594.79  E(vib)   ...       0.10 
freq.     604.12  E(vib)   ...       0.10 
freq.     634.48  E(vib)   ...       0.09 
freq.     638.19  E(vib)   ...       0.09 
freq.     653.76  E(vib)   ...       0.08 
freq.     658.93  E(vib)   ...       0.08 
freq.     751.98  E(vib)   ...       0.06 
freq.     754.08  E(vib)   ...       0.06 
freq.     777.14  E(vib)   ...       0.05 
freq.     779.91  E(vib)   ...       0.05 
freq.     836.71  E(vib)   ...       0.04 
freq.     837.85  E(vib)   ...       0.04 
freq.     891.59  E(vib)   ...       0.03 
freq.     896.69  E(vib)   ...       0.03 
freq.     904.40  E(vib)   ...       0.03 
freq.     904.51  E(vib)   ...       0.03 
freq.     982.76  E(vib)   ...       0.02 
freq.     983.20  E(vib)   ...       0.02 
freq.    1003.34  E(vib)   ...       0.02 
freq.    1003.96  E(vib)   ...       0.02 
freq.    1015.77  E(vib)   ...       0.02 
freq.    1015.92  E(vib)   ...       0.02 
freq.    1048.39  E(vib)   ...       0.02 
freq.    1052.69  E(vib)   ...       0.02 
freq.    1087.02  E(vib)   ...       0.02 
freq.    1087.52  E(vib)   ...       0.02 
freq.    1110.21  E(vib)   ...       0.02 
freq.    1111.47  E(vib)   ...       0.01 
freq.    1139.55  E(vib)   ...       0.01 
freq.    1140.22  E(vib)   ...       0.01 
freq.    1180.04  E(vib)   ...       0.01 
freq.    1180.06  E(vib)   ...       0.01 
freq.    1225.55  E(vib)   ...       0.01 
freq.    1226.83  E(vib)   ...       0.01 
freq.    1259.23  E(vib)   ...       0.01 
freq.    1259.60  E(vib)   ...       0.01 
freq.    1314.32  E(vib)   ...       0.01 
freq.    1315.77  E(vib)   ...       0.01 
freq.    1324.88  E(vib)   ...       0.01 
freq.    1325.02  E(vib)   ...       0.01 
freq.    1389.22  E(vib)   ...       0.00 
freq.    1391.85  E(vib)   ...       0.00 
freq.    1412.07  E(vib)   ...       0.00 
freq.    1414.72  E(vib)   ...       0.00 
freq.    1476.78  E(vib)   ...       0.00 
freq.    1477.17  E(vib)   ...       0.00 
freq.    1483.74  E(vib)   ...       0.00 
freq.    1484.41  E(vib)   ...       0.00 
freq.    1526.14  E(vib)   ...       0.00 
freq.    1526.64  E(vib)   ...       0.00 
freq.    1634.52  E(vib)   ...       0.00 
freq.    1635.01  E(vib)   ...       0.00 
freq.    1670.01  E(vib)   ...       0.00 
freq.    1671.74  E(vib)   ...       0.00 
freq.    2129.23  E(vib)   ...       0.00 
freq.    2140.12  E(vib)   ...       0.00 
freq.    3044.08  E(vib)   ...       0.00 
freq.    3045.32  E(vib)   ...       0.00 
freq.    3089.17  E(vib)   ...       0.00 
freq.    3090.47  E(vib)   ...       0.00 
freq.    3200.47  E(vib)   ...       0.00 
freq.    3200.57  E(vib)   ...       0.00 
freq.    3214.06  E(vib)   ...       0.00 
freq.    3214.08  E(vib)   ...       0.00 
freq.    3221.47  E(vib)   ...       0.00 
freq.    3221.73  E(vib)   ...       0.00 
freq.    3235.20  E(vib)   ...       0.00 
freq.    3235.37  E(vib)   ...       0.00 
freq.    3673.76  E(vib)   ...       0.00 
freq.    3679.61  E(vib)   ...       0.00 

------------
INNER ENERGY
------------

The inner energy is: U= E(el) + E(ZPE) + E(vib) + E(rot) + E(trans)
    E(el)   - is the total energy from the electronic structure calculation
              = E(kin-el) + E(nuc-el) + E(el-el) + E(nuc-nuc)
    E(ZPE)  - the the zero temperature vibrational energy from the frequency calculation
    E(vib)  - the the finite temperature correction to E(ZPE) due to population
              of excited vibrational states
    E(rot)  - is the rotational thermal energy
    E(trans)- is the translational thermal energy

Summary of contributions to the inner energy U:
Electronic energy                ...  -2857.68496251 Eh
Zero point energy                ...      0.27097996 Eh     170.04 kcal/mol
Thermal vibrational correction   ...      0.02099370 Eh      13.17 kcal/mol
Thermal rotational correction    ...      0.00141627 Eh       0.89 kcal/mol
Thermal translational correction ...      0.00141627 Eh       0.89 kcal/mol
-----------------------------------------------------------------------
Total thermal energy                  -2857.39015630 Eh


Summary of corrections to the electronic energy:
(perhaps to be used in another calculation)
Total thermal correction                  0.02382624 Eh      14.95 kcal/mol
Non-thermal (ZPE) correction              0.27097996 Eh     170.04 kcal/mol
-----------------------------------------------------------------------
Total correction                          0.29480621 Eh     184.99 kcal/mol


--------
ENTHALPY
--------

The enthalpy is H = U + kB*T
                kB is Boltzmann's constant
Total thermal energy              ...  -2857.39015630 Eh 
Thermal Enthalpy correction       ...      0.00094421 Eh       0.59 kcal/mol
-----------------------------------------------------------------------
Total Enthalpy                    ...  -2857.38921209 Eh


Note: Only C1 symmetry has been detected, increase convergence thresholds 
      if your molecule has a higher symmetry. Symmetry factor of 1.0 is   
      used for the rotational entropy correction. 
 

Note: Rotational entropy computed according to Herzberg 
Infrared and Raman Spectra, Chapter V,1, Van Nostrand Reinhold, 1945 
Point Group:  C1, Symmetry Number:   1  
Rotational constants in cm-1:     0.007192     0.005909     0.004556 

Vibrational entropy computed according to the QRRHO of S. Grimme
Chem.Eur.J. 2012 18 9955 using a reference frequency of 100.0 cm-1


-------
ENTROPY
-------

The entropy contributions are T*S = T*(S(el)+S(vib)+S(rot)+S(trans))
     S(el)   - electronic entropy
     S(vib)  - vibrational entropy
     S(rot)  - rotational entropy
     S(trans)- translational entropy
The entropies will be listed as multiplied by the temperature to get
units of energy

Electronic entropy                ...      0.00130891 Eh      0.82 kcal/mol
Vibrational entropy               ...      0.03882505 Eh     24.36 kcal/mol
Rotational entropy                ...      0.01680809 Eh     10.55 kcal/mol
Translational entropy             ...      0.02079640 Eh     13.05 kcal/mol
-----------------------------------------------------------------------
Final entropy term                ...      0.07773845 Eh     48.78 kcal/mol

In case the symmetry of your molecule has not been determined correctly
or in case you have a reason to use a different symmetry number we print 
out the resulting rotational entropy values for sn=1,12:

 non-linear molecules -----------------------------------
|  sn= 1 | S(rot)=       0.01680809 Eh     10.55 kcal/mol|
|  sn= 2 | S(rot)=       0.01615363 Eh     10.14 kcal/mol|
|  sn= 3 | S(rot)=       0.01577080 Eh      9.90 kcal/mol|
|  sn= 4 | S(rot)=       0.01549918 Eh      9.73 kcal/mol|
|  sn= 5 | S(rot)=       0.01528849 Eh      9.59 kcal/mol|
|  sn= 6 | S(rot)=       0.01511634 Eh      9.49 kcal/mol|
|  sn= 7 | S(rot)=       0.01497080 Eh      9.39 kcal/mol|
|  sn= 8 | S(rot)=       0.01484472 Eh      9.32 kcal/mol|
|  sn= 9 | S(rot)=       0.01473351 Eh      9.25 kcal/mol|
|  sn=10 | S(rot)=       0.01463403 Eh      9.18 kcal/mol|
|  sn=11 | S(rot)=       0.01454404 Eh      9.13 kcal/mol|
|  sn=12 | S(rot)=       0.01446189 Eh      9.07 kcal/mol|
 linear molecules ---------------------------------------
|  Dinfh | S(rot)=       0.01041616 Eh      6.54 kcal/mol|
|  Cinfv | S(rot)=       0.01107062 Eh      6.95 kcal/mol|
 --------------------------------------------------------


-------------------
GIBBS FREE ENERGY
-------------------

The Gibbs free energy is G = H - T*S

Total enthalpy                    ...  -2857.38921209 Eh 
Total entropy correction          ...     -0.07773845 Eh    -48.78 kcal/mol
-----------------------------------------------------------------------
Final Gibbs free energy         ...  -2857.46695055 Eh

For completeness - the Gibbs free energy minus the electronic energy
G-E(el)                           ...      0.21801196 Eh    136.80 kcal/mol


Maximum memory used throughout the entire PROP-calculation: 871.3 MB

--------------------------------
SUGGESTED CITATIONS FOR THIS RUN
--------------------------------

Below you find a list of papers that are relevant to this ORCA run
We neither can nor want to force you to cite these papers, but we appreciate if you do
You receive ORCA, which is the product of decades of hard work by many enthusiastic individuals, for free
The only thing we kindly ask in return is that you cite our papers,
We deeply appreciate it, if you show your appreciation for ORCA by not just citing the generic ORCA reference.

Please note that relegating all ORCA citations to the supporting information does *not* help us.
SI sections are not indexed - citations you put there will not count into any citation statistics
But we need these citations in order to attract the funding resources that allow us to do what we are doing

Therefore, if you are a happy ORCA user, please consider citing a few of the papers listed below in the main body of your paper

In addition to the list printed below, the program has created the file XAKDOE01-S6.bibtex that contains the list in bibtex format
You can import this file easily into all common literature databanks and citation aid programs


List of essential papers. We consider these as the minimum necessary citations

  1. Neese,F.
     Software update: the ORCA program system, version 5.0
     WIRES Comput. Molec. Sci., 2022 12(1)e1606
     doi.org/10.1002/wcms.1606

List of papers to cite with high priority. The work reported in these papers was absolutely
necessary for this run to complete.
Our perspective: the developers of density functionals and basis sets usually get cited in chemistry papers
Good! But without the algorithms to do something with them, the functionals or basis sets would not do anything.
Hence, in our opinion, the algorithm design and method developments papers are equally worthy of getting cited

  1. Neese,F.
     An improvement of the resolution of the identity approximation for the formation of the Coulomb matrix
     J. Comp. Chem., 2003 24(14)1740-1747
     doi.org/10.1002/jcc.10318
  2. Neese,F.; Wennmohs,F.; Hansen,A.; Becker,U.
     Efficient, approximate and parallel Hartree-Fock and hybrid DFT calculations. A 'chain-of-spheres' algorithm for the Hartree-Fock exchange
     Chem. Phys., 2009 356(1-3)98-109
     doi.org/10.1016/j.chemphys.2008.10.036
  3. Bykov,D.; Petrenko,T.; Izsak,R.; Kossmann,S.; Becker,U.; Valeev,E.; Neese,F.
     Efficient implementation of the analytic second derivatives of Hartree-Fock and hybrid DFT energies: a detailed analysis of different approximations
     Molec. Phys., 2015 113 1961-1977
     doi.org/10.1080/00268976.2015.1025114
  4. Helmich-Paris,B.; de Souza,B.; Neese,F.; Izsák,R.
     An improved chain of spheres for exchange algorithm
     J. Chem. Phys., 2021 155 104109
     doi.org/doi: 10.1063/5.0058766.
  5. Neese,F.
     The SHARK Integral Generation and Digestion System
     J. Comp. Chem., 2022  1-16
     doi.org/10.1002/jcc.26942

List of suggested additional citations. These are papers that are important in the 'surrounding' of 
of this run, or papers that preceded the highly important papers. If you like your results we are grateful for a citation.

  1. Izsak,R.; Neese,F.
     An overlap fitted chain of spheres exchange method
     J. Chem. Phys., 2011 135 144105
     doi.org/10.1063/1.3646921
  2. Izsak,R.; Hansen,A.; Neese,F.
     The resolution of identity and chain of spheres approximations for the LPNO-CCSD singles Fock term
     Molec. Phys., 2012 110 2413-2417
     doi.org/10.1080/00268976.2012.687466
  3. Neese,F.
     The ORCA program system
     WIRES Comput. Molec. Sci., 2012 2(1)73-78
     doi.org/10.1002/wcms.81
  4. Izsak,R.; Neese,F.; Klopper,W.
     Robust fitting techniques in the chain of spheres approximation to the Fock exchange: The role of the complementary space
     J. Chem. Phys., 2013 139 
     doi.org/10.1063/1.4819264
  5. Neese,F.
     Software update: the ORCA program system, version 4.0
     WIRES Comput. Molec. Sci., 2018 8(1)1-6
     doi.org/10.1002/wcms.1327
  6. Neese,F.; Wennmohs,F.; Becker,U.; Riplinger,C.
     The ORCA quantum chemistry program package
     J. Chem. Phys., 2020 152 Art. No. L224108
     doi.org/10.1063/5.0004608

List of optional additional citations

  1. Neese,F.
     Approximate second-order SCF convergence for spin unrestricted wavefunctions
     Chem. Phys. Lett., 2000 325(1-3)93-98
     doi.org/10.1016/s0009-2614(00)00662-x

Timings for individual modules:

Sum of individual times          ...     6372.393 sec (= 106.207 min)
Startup calculation              ...      111.447 sec (=   1.857 min)   1.7 %
SCF iterations                   ...     1692.550 sec (=  28.209 min)  26.6 %
Property integrals               ...      951.378 sec (=  15.856 min)  14.9 %
SCF Response                     ...     2562.762 sec (=  42.713 min)  40.2 %
Property calculations            ...      600.695 sec (=  10.012 min)   9.4 %
SCF Gradient evaluation          ...      453.311 sec (=   7.555 min)   7.1 %
Geometry relaxation              ...        0.251 sec (=   0.004 min)   0.0 %
                             ****ORCA TERMINATED NORMALLY****
TOTAL RUN TIME: 0 days 1 hours 46 minutes 32 seconds 807 msec
