
                                 *****************
                                 * O   R   C   A *
                                 *****************

                                            #,                                       
                                            ###                                      
                                            ####                                     
                                            #####                                    
                                            ######                                   
                                           ########,                                 
                                     ,,################,,,,,                         
                               ,,#################################,,                 
                          ,,##########################################,,             
                       ,#########################################, ''#####,          
                    ,#############################################,,   '####,        
                  ,##################################################,,,,####,       
                ,###########''''           ''''###############################       
              ,#####''   ,,,,##########,,,,          '''####'''          '####       
            ,##' ,,,,###########################,,,                        '##       
           ' ,,###''''                  '''############,,,                           
         ,,##''                                '''############,,,,        ,,,,,,###''
      ,#''                                            '''#######################'''  
     '                                                          ''''####''''         
             ,#######,   #######,   ,#######,      ##                                
            ,#'     '#,  ##    ##  ,#'     '#,    #''#        ,####,   ,####,        
            ##       ##  ##   ,#'  ##            #'  '#       #'       #'  '#        
            ##       ##  #######   ##           ,######,      #####,   #    #        
            '#,     ,#'  ##    ##  '#,     ,#' ,#      #,     #,   #   #,  ,#        
             '#######'   ##     ##  '#######'  #'      '#     '####' # '####'        



                #########################################################
                #                        -***-                          #
                #          Department of theory and spectroscopy        #
                #                                                       #
                #                      Frank Neese                      #
                #                                                       #
                #     Directorship, Architecture, Infrastructure        #
                #                    SHARK, DRIVERS                     #
                #        Core code/Algorithms in most modules           #
                #                                                       #
                #        Max Planck Institute fuer Kohlenforschung      #
                #                Kaiser Wilhelm Platz 1                 #
                #                 D-45470 Muelheim/Ruhr                 #
                #                      Germany                          #
                #                                                       #
                #                  All rights reserved                  #
                #                        -***-                          #
                #########################################################


                         Program Version 6.0.1  -  RELEASE   -


 With contributions from (in alphabetic order):
[Max-Planck-Institut fuer Kohlenforschung]                               
  Daniel Aravena         : Magnetic Suceptibility                        
  Michael Atanasov       : Ab Initio Ligand Field Theory (pilot matlab implementation)
  Alexander A. Auer      : GIAO ZORA, VPT2 properties, NMR spectrum      
  Ute Becker             : All parallelization in ORCA, NUMFREQ, NUMCALC 
  Giovanni Bistoni       : ED, misc. LED, open-shell LED, HFLD           
  Martin Brehm           : Molecular dynamics                            
  Dmytro Bykov           : pre 5.0 version of the SCF Hessian            
  Marcos Casanova-Páez   : Triplet and SCS-CIS(D). UHF-(DLPNO)-IP/EA/STEOM-CCSD. UHF-CVS-IP/STEOM-CCSD   
  Vijay G. Chilkuri      : MRCI spin determinant printing, contributions to CSF-ICE 
  Pauline Colinet        : FMM embedding                                 
  Dipayan Datta          : RHF DLPNO-CCSD density                        
  Achintya Kumar Dutta   : EOM-CC, STEOM-CC                              
  Nicolas Foglia         : Exact transition moments, OPA infrastructure, MCD improvements    
  Dmitry Ganyushin       : Spin-Orbit,Spin-Spin,Magnetic field MRCI      
  Miquel Garcia-Rates    : C-PCM and meta-GGA Hessian, CCSD/C-PCM, Gaussian charge scheme 
  Tiago L. C. Gouveia    : GS-ROHF, GS-ROCIS                             
  Yang Guo               : DLPNO-NEVPT2, F12-NEVPT2, CIM, IAO-localization        
  Andreas Hansen         : Spin unrestricted coupled pair/coupled cluster methods 
  Ingolf Harden          : AUTO-CI MPn and infrastructure                
  Benjamin Helmich-Paris : MC-RPA, TRAH-(SCF,CASSCF), AVAS, COSX integrals, SCF dyn. polar. 
  Lee Huntington         : MR-EOM, pCC                                   
  Robert Izsak           : Overlap fitted RIJCOSX, COSX-SCS-MP3, EOM     
  Riya Kayal             : Wick's Theorem for AUTO-CI, AUTO-CI UHF-CCSDT 
  Emily Kempfer          : AUTO-CI, RHF CISDT and CCSDT                  
  Christian Kollmar      : KDIIS, OOCD, Brueckner-CCSD(T), CCSD density, CASPT2, CASPT2-K, improved NEVPT2 
  Axel Koslowski         : Symmetry handling                             
  Simone Kossmann        : meta-GGA functionals, TD-DFT gradient, OOMP2, (MP2 Hessian; deprecated post 5.0) 
  Lucas Lang             : DCDCAS                                        
  Marvin Lechner         : AUTO-CI (C++ implementation), FIC-MRCC        
  Spencer Leger          : CASSCF response                               
  Dagmar Lenk            : GEPOL surface, SMD, ORCA-2-JSON               
  Dimitrios Liakos       : Extrapolation schemes; Compound Job, initial MDCI parallelization 
  Dimitrios Manganas     : Further ROCIS development; embedding schemes. LFT, Crystal Embedding 
  Dimitrios Pantazis     : SARC Basis sets                               
  Anastasios Papadopoulos: AUTO-CI, single reference methods and gradients 
  Taras Petrenko         : pre 6.0 DFT Hessian and TD-DFT gradient, (ASA, deprecated), ECA, 1-Electron XAS/XES, NRVS 
  Peter Pinski           : DLPNO-MP2, DLPNO-MP2 Gradient                 
  Christoph Reimann      : Effective Core Potentials                     
  Marius Retegan         : Local ZFS, SOC                                
  Christoph Riplinger    : Optimizer, TS searches, QM/MM, DLPNO-CCSD(T), (RO)-DLPNO pert. Triples 
  Michael Roemelt        : Original ROCIS implementation                 
  Masaaki Saitow         : Open-shell DLPNO-CCSD energy and density      
  Barbara Sandhoefer     : DKH picture change effects                    
  Kantharuban Sivalingam : CASSCF convergence/infrastructure, NEVPT2 and variants, FIC-MRCI 
  Bernardo de Souza      : ESD, SOC TD-DFT                               
  Georgi L. Stoychev     : AutoAux, RI-MP2 NMR, DLPNO-MP2 response, X2C  
  Van Anh Tran           : RI-MP2 g-tensors                              
  Willem Van den Heuvel  : Paramagnetic NMR                              
  Zikuan Wang            : NOTCH, Electric field optimization            
  Frank Wennmohs         : Technical directorship and infrastructure     
  Hang Xu                : AUTO-CI-Response properties                   
                                                                         
[FACCTs GmbH]                                                            
  Markus Bursch, Miquel Garcia-Rates, Christoph Riplinger, Bernardo de Souza, Georgi L. Stoychev 
                                                                 
  APM, Basis sets (HGBS, AHGBS, def-TZVP (Ac-Lr), def2-XVPD (La-Lu)), CI-OPT, improved COSX, DLPNO-Multilevel,           
  DOCKER, DRACO, updates on ESD, GOAT, IRC, LR-CPCM, MBIS, meta-GGA TD-DFT gradient, ML-optimized integration grids, 
  MM, NACMEs, nearIR, NEB, NEB-TS, NL-DFT gradient (VV10), 2- and 3-layer-ONIOM, interface openCOSMO-RS, QMMM,   
  Crystal-QMMM, SF, symmetry and pop. for TD-DFT, r2SCAN hybrids, SOLVATOR                                   
                                                                         
[Other institutions]                                                     
  V. Asgeirsson          : NEB                                           
  Christoph Bannwarth    : sTDA-DFT, sTD-DFT, PBEh-3c, B97-3c, D3        
  Sebastian Ehlert       : rSCAN, r2SCAN, r2SCAN-3c, D4, dhf basis sets  
  Marvin Friede          : D4 for Fr, Ra, Ac-Lr                          
  Lars Goerigk           : TD-DFT with DH, B97 family of functionals     
  Stefan Grimme          : VdW corrections, initial TS optimization, DFT functionals, gCP, sTDA/sTD-DF 
  Waldemar Hujo          : DFT-NL                                        
  H. Jonsson             : NEB                                           
  Holger Kruse           : gCP                                           
  Marcel Mueller         : wB97X-3c, vDZP basis set                      
  Hagen Neugebauer       : wr2SCAN                                       
  Tobias Risthaus        : range-separated hybrid DFT                    
  Lukas Wittmann         : regularized MP2, r2SCAN double-hybrids, wr2SCAN        
                                                                         
We gratefully acknowledge several colleagues who have allowed us to      
interface, adapt or use parts of their codes:                            
  Ed Valeev, F. Pavosevic, A. Kumar             : LibInt (2-el integral package), F12 methods 
  Garnet Chan, S. Sharma, J. Yang, R. Olivares  : DMRG                   
  Ulf Ekstrom                                   : XCFun DFT Library      
  Mihaly Kallay                                 : mrcc  (arbitrary order and MRCC methods)
  Frank Weinhold                                : gennbo (NPA and NBO analysis)           
  Simon Mueller                                 : openCOSMO-RS                            
  Christopher J. Cramer and Donald G. Truhlar   : smd solvation model                     
  S Lehtola, MJT Oliveira, MAL Marques          : LibXC Library                           
  Liviu Ungur et al                             : ANISO software                          


 Your calculation uses the libint2 library for the computation of 2-el integrals
 For citations please refer to: http://libint.valeyev.net

 Your ORCA version has been built with support for libXC version: 6.2.2
 For citations please refer to: https://libxc.gitlab.io

 This ORCA versions uses:
   CBLAS   interface :  Fast vector & matrix operations
   LAPACKE interface :  Fast linear algebra routines
   SCALAPACK package :  Parallel linear algebra routines
   Shared memory     :  Shared parallel matrices
   BLAS/LAPACK       :  OpenBLAS 0.3.27  USE64BITINT DYNAMIC_ARCH NO_AFFINITY Cooperlake SINGLE_THREADED
        Core in use  :  Cooperlake
   Copyright (c) 2011-2014, The OpenBLAS Project


NOTE: MaxCore=3600 MB was set to SCF,MP2,MDCI,CIPSI,MRCI and CIS
      => If you want to overwrite this, your respective input block should be placed after the MaxCore statement
Warning: RI is on but no J-basis has been assigned. Assigning Def2/J (nothing to worry about!)
================================================================================

----- Orbital basis set information -----
Your calculation utilizes the basis: def2-TZVP
   F. Weigend and R. Ahlrichs, Phys. Chem. Chem. Phys. 7, 3297 (2005).

----- AuxJ basis set information -----
Your calculation utilizes the auxiliary basis: def2/J
   F. Weigend, Phys. Chem. Chem. Phys. 8, 1057 (2006).

================================================================================
                                        WARNINGS
                       Please study these warnings very carefully!
================================================================================


WARNING: your system is open-shell and RHF/RKS was chosen
  ===> : WILL SWITCH to UHF/UKS


WARNING: Geometry Optimization
  ===> : Switching off AutoStart
         For restart on a previous wavefunction, please use MOREAD

================================================================================
                                       INPUT FILE
================================================================================
NAME = CAMVER10-S5.inp
|  1> ! PBE0 def2-TZVP  Opt Freq DEFGRID3
|  2> 
|  3> %maxcore 3600
|  4> 
|  5> %pal
|  6>     nprocs 16
|  7> end
|  8> 
|  9> *xyz 0 3
| 10> Cr -2.5447 -2.8045 8.3098
| 11> P -1.8293 -0.8636 7.2121
| 12> P -1.7067 -1.6847 10.197
| 13> C -2.874 0.0552 6.0246
| 14> C -0.2306 -0.8428 6.3296
| 15> C -1.5482 0.461 8.4669
| 16> C -2.873 -1.0436 11.4409
| 17> C -0.4269 -2.3916 11.2988
| 18> C -0.846 -0.1242 9.6743
| 19> C -4.454 -1.8165 8.589
| 20> H -2.9156 -0.4194 5.2219
| 21> H -3.7408 0.1025 6.249
| 22> H -2.4635 0.9204 5.8875
| 23> H -0.0528 -0.0582 5.9781
| 24> H -0.2589 -1.4279 5.5634
| 25> H 0.3569 -1.1803 6.8332
| 26> H -1.0707 1.1812 8.0605
| 27> H -2.3921 0.7644 8.8574
| 28> H -3.3259 -1.7829 11.8332
| 29> H -3.4716 -0.5334 10.9881
| 30> H -2.4082 -0.552 12.2412
| 31> H -0.1717 -1.7634 11.9046
| 32> H 0.3475 -2.6936 10.7421
| 33> H -0.7635 -3.0814 11.6911
| 34> H -0.9015 0.4932 10.5019
| 35> H 0.1014 -0.4143 9.366
| 36> H -4.5426 -0.9872 8.4494
| 37> H -4.9902 -2.1264 8.0306
| 38> H -4.7127 -1.9437 9.4599
| 39> P -3.2601 -4.7453 9.4075
| 40> P -3.3826 -3.9243 6.4227
| 41> C -0.6354 -3.7925 8.0306
| 42> C -2.2154 -5.6641 10.595
| 43> C -4.8587 -4.7662 10.29
| 44> C -3.5412 -6.07 8.1528
| 45> C -2.2164 -4.5653 5.1787
| 46> C -4.6625 -3.2173 5.3208
| 47> C -4.2434 -5.4847 6.9453
| 48> H -0.5468 -4.6218 8.1702
| 49> H -0.0992 -3.4826 8.589
| 50> H -0.3766 -3.6653 7.1597
| 51> H -2.1737 -5.1896 11.3977
| 52> H -1.3485 -5.7115 10.3706
| 53> H -2.6258 -6.5293 10.7321
| 54> H -5.0365 -5.5507 10.6415
| 55> H -4.8304 -4.181 11.0562
| 56> H -5.4462 -4.4287 9.7865
| 57> H -4.0187 -6.7901 8.5591
| 58> H -2.6973 -6.3733 7.7622
| 59> H -1.7635 -3.826 4.7865
| 60> H -1.6178 -5.0755 5.6316
| 61> H -2.6811 -5.0569 4.3784
| 62> H -4.9177 -3.8455 4.715
| 63> H -5.4368 -2.9154 5.8775
| 64> H -4.3259 -2.5276 4.9285
| 65> H -4.1879 -6.1021 6.1177
| 66> H -5.1908 -5.1947 7.2536
| 67> *
| 68> 
| 69>                          ****END OF INPUT****
================================================================================

                       *****************************
                       * Geometry Optimization Run *
                       *****************************

Geometry optimization settings:
Update method            Update   .... BFGS
Choice of coordinates    CoordSys .... (2022) Redundant Internals
Initial Hessian          InHess   .... Almloef's Model
Max. no of cycles        MaxIter  .... 171

Convergence Tolerances:
Energy Change            TolE     ....  5.0000e-06 Eh
Max. Gradient            TolMAXG  ....  3.0000e-04 Eh/bohr
RMS Gradient             TolRMSG  ....  1.0000e-04 Eh/bohr
Max. Displacement        TolMAXD  ....  4.0000e-03 bohr
RMS Displacement         TolRMSD  ....  2.0000e-03 bohr
Strict Convergence                .... False

------------------------------------------------------------------------------
                        ORCA OPTIMIZATION COORDINATE SETUP
------------------------------------------------------------------------------

The optimization will be done in redundant internal coordinates (2022)
Making redundant internal coordinates   ...  (2022 redundants) done
Evaluating the initial hessian          ...  (Almloef) done
Evaluating the coordinates              ...  done
Calculating the B-matrix                .... done
Calculating the G-matrix                .... done
Diagonalizing the G-matrix              .... done
Small eigenvalue found = 1.709e-02
Small eigenvalue found = 1.767e-02
Small eigenvalue found = 2.797e-02
The first mode is                       ....  187
The number of degrees of freedom        ....  165

    -----------------------------------------------------------------
                    Redundant Internal Coordinates


    -----------------------------------------------------------------
         Definition                    Initial Value    Approx d2E/dq
    -----------------------------------------------------------------
      1. B(P   1,Cr  0)                  2.3418         0.644001   
      2. B(P   2,Cr  0)                  2.3490         0.627136   
      3. B(C   3,P   1)                  1.8291         0.418422   
      4. B(C   4,P   1)                  1.8262         0.422932   
      5. B(C   5,P   1)                  1.8461         0.393138   
      6. B(C   6,P   2)                  1.8217         0.430031   
      7. B(C   7,P   2)                  1.8307         0.415989   
      8. B(C   8,C   5)                  1.5144         0.395632   
      9. B(C   8,P   2)                  1.8572         0.377442   
     10. B(C   9,Cr  0)                  2.1678         0.362971   
     11. B(H  10,C   3)                  0.9334         0.640045   
     12. B(H  11,C   3)                  0.8966         0.732727   
     13. B(H  12,C   3)                  0.9674         0.564952   
     14. B(H  13,C   4)                  0.8779         0.784813   
     15. B(H  14,C   4)                  0.9645         0.571078   
     16. B(H  15,C   4)                  0.8442         0.888341   
     17. B(H  16,C   5)                  0.9549         0.591492   
     18. B(H  17,C   5)                  0.9781         0.543161   
     19. B(H  18,C   6)                  0.9516         0.598685   
     20. B(H  19,C   6)                  0.9076         0.703889   
     21. B(H  20,C   6)                  1.0479         0.420260   
     22. B(H  21,C   7)                  0.9093         0.699488   
     23. B(H  22,C   7)                  1.0004         0.500453   
     24. B(H  23,C   7)                  0.8620         0.832151   
     25. B(H  24,C   8)                  1.0340         0.442329   
     26. B(H  25,C   8)                  1.0377         0.436416   
     27. B(H  26,C   9)                  0.8456         0.883716   
     28. B(H  27,C   9)                  0.8339         0.922663   
     29. B(H  28,C   9)                  0.9174         0.678952   
     30. B(P  29,Cr  0)                  2.3417         0.644197   
     31. B(P  30,Cr  0)                  2.3489         0.627403   
     32. B(C  31,Cr  0)                  2.1678         0.362971   
     33. B(C  32,P  29)                  1.8291         0.418422   
     34. B(C  33,P  29)                  1.8261         0.423067   
     35. B(C  34,P  29)                  1.8461         0.393133   
     36. B(C  35,P  30)                  1.8217         0.430080   
     37. B(C  36,P  30)                  1.8309         0.415731   
     38. B(C  37,C  34)                  1.5145         0.395460   
     39. B(C  37,P  30)                  1.8571         0.377533   
     40. B(H  38,C  31)                  0.8456         0.883716   
     41. B(H  39,C  31)                  0.8339         0.922663   
     42. B(H  40,C  31)                  0.9174         0.678882   
     43. B(H  41,C  32)                  0.9334         0.640154   
     44. B(H  42,C  32)                  0.8967         0.732452   
     45. B(H  43,C  32)                  0.9674         0.565040   
     46. B(H  44,C  33)                  0.8778         0.785071   
     47. B(H  45,C  33)                  0.9645         0.570951   
     48. B(H  46,C  33)                  0.8441         0.888536   
     49. B(H  47,C  34)                  0.9548         0.591748   
     50. B(H  48,C  34)                  0.9781         0.543143   
     51. B(H  49,C  35)                  0.9516         0.598776   
     52. B(H  50,C  35)                  0.9076         0.703760   
     53. B(H  51,C  35)                  1.0479         0.420329   
     54. B(H  52,C  36)                  0.9093         0.699488   
     55. B(H  53,C  36)                  1.0003         0.500650   
     56. B(H  54,C  36)                  0.8619         0.832396   
     57. B(H  55,C  37)                  1.0340         0.442329   
     58. B(H  56,C  37)                  1.0376         0.436461   
     59. A(P   1,Cr  0,P   2)           82.6749         0.613219   
     60. A(P   2,Cr  0,C   9)           89.6256         0.522840   
     61. A(P   1,Cr  0,C  31)           92.7687         0.525454   
     62. A(P   2,Cr  0,C  31)           90.3744         0.522840   
     63. A(P  29,Cr  0,P  30)           82.6750         0.613306   
     64. A(P   2,Cr  0,P  29)           97.3242         0.613255   
     65. A(P   1,Cr  0,C   9)           87.2313         0.525454   
     66. A(P   1,Cr  0,P  30)           97.3259         0.613269   
     67. A(C   9,Cr  0,P  30)           90.3763         0.522882   
     68. A(P  29,Cr  0,C  31)           87.2323         0.525484   
     69. A(C   9,Cr  0,P  29)           92.7677         0.525484   
     70. A(P  30,Cr  0,C  31)           89.6237         0.522882   
     71. A(C   4,P   1,C   5)          100.7771         0.425010   
     72. A(C   3,P   1,C   4)          100.4013         0.429784   
     73. A(Cr  0,P   1,C   4)          120.2248         0.513451   
     74. A(Cr  0,P   1,C   5)          108.8199         0.506490   
     75. A(C   3,P   1,C   5)           99.6612         0.424196   
     76. A(Cr  0,P   1,C   3)          123.1042         0.512422   
     77. A(C   7,P   2,C   8)           99.7793         0.420681   
     78. A(C   6,P   2,C   8)          101.1386         0.423182   
     79. A(C   6,P   2,C   7)           99.9333         0.430619   
     80. A(Cr  0,P   2,C   8)          109.8631         0.500181   
     81. A(Cr  0,P   2,C   7)          123.2875         0.509331   
     82. A(Cr  0,P   2,C   6)          119.2065         0.512501   
     83. A(H  11,C   3,H  12)          113.4847         0.351485   
     84. A(H  10,C   3,H  11)          101.4760         0.359005   
     85. A(H  10,C   3,H  12)          110.5954         0.343572   
     86. A(P   1,C   3,H  12)          107.3913         0.379058   
     87. A(P   1,C   3,H  11)          114.5927         0.396642   
     88. A(P   1,C   3,H  10)          109.1681         0.387368   
     89. A(H  14,C   4,H  15)          104.5837         0.363849   
     90. A(H  13,C   4,H  15)          117.0768         0.384356   
     91. A(P   1,C   4,H  15)          108.4452         0.411129   
     92. A(H  13,C   4,H  14)          103.2993         0.356248   
     93. A(P   1,C   4,H  14)          110.5669         0.380473   
     94. A(P   1,C   4,H  13)          112.3922         0.402220   
     95. A(C   8,C   5,H  16)          113.5093         0.355733   
     96. A(P   1,C   5,H  16)          109.1485         0.377982   
     97. A(P   1,C   5,C   8)          109.5881         0.394055   
     98. A(H  16,C   5,H  17)          111.5551         0.336851   
     99. A(C   8,C   5,H  17)          101.6317         0.350636   
    100. A(P   1,C   5,H  17)          111.2571         0.372460   
    101. A(H  19,C   6,H  20)          114.1952         0.332262   
    102. A(P   2,C   6,H  20)          113.7404         0.361955   
    103. A(H  18,C   6,H  20)          105.1121         0.323510   
    104. A(H  18,C   6,H  19)          109.1785         0.352547   
    105. A(P   2,C   6,H  19)          106.2270         0.395753   
    106. A(P   2,C   6,H  18)          108.2273         0.384716   
    107. A(H  22,C   7,H  23)          108.2978         0.351842   
    108. A(H  21,C   7,H  23)          111.0547         0.372536   
    109. A(P   2,C   7,H  23)          108.0545         0.405213   
    110. A(P   2,C   7,H  22)          108.8320         0.370835   
    111. A(P   2,C   7,H  21)          109.2936         0.393024   
    112. A(H  21,C   7,H  22)          111.2266         0.341711   
    113. A(P   2,C   8,C   5)          109.5236         0.391255   
    114. A(H  24,C   8,H  25)          116.9831         0.309860   
    115. A(C   5,C   8,H  25)          107.1276         0.337995   
    116. A(P   2,C   8,H  25)          105.7736         0.356287   
    117. A(C   5,C   8,H  24)          112.4892         0.338754   
    118. A(P   2,C   8,H  24)          104.5701         0.357102   
    119. A(H  27,C   9,H  28)          113.7568         0.377290   
    120. A(H  26,C   9,H  28)          105.2574         0.374489   
    121. A(Cr  0,C   9,H  28)          107.9052         0.400686   
    122. A(H  26,C   9,H  27)          100.7511         0.395012   
    123. A(Cr  0,C   9,H  27)          108.1021         0.423092   
    124. A(Cr  0,C   9,H  26)          121.1965         0.419847   
    125. A(C  33,P  29,C  34)          100.7743         0.425033   
    126. A(C  32,P  29,C  34)           99.6576         0.424195   
    127. A(Cr  0,P  29,C  34)          108.8230         0.506518   
    128. A(C  32,P  29,C  33)          100.3984         0.429808   
    129. A(Cr  0,P  29,C  33)          120.2295         0.513510   
    130. A(Cr  0,P  29,C  32)          123.1041         0.512451   
    131. A(C  36,P  30,C  37)           99.7755         0.420652   
    132. A(C  35,P  30,C  37)          101.1423         0.423209   
    133. A(Cr  0,P  30,C  37)          109.8667         0.500243   
    134. A(C  35,P  30,C  36)           99.9281         0.430580   
    135. A(Cr  0,P  30,C  36)          123.2846         0.509313   
    136. A(Cr  0,P  30,C  35)          119.2110         0.512553   
    137. A(H  39,C  31,H  40)          113.7516         0.377283   
    138. A(H  38,C  31,H  40)          105.2563         0.374482   
    139. A(Cr  0,C  31,H  40)          107.9104         0.400679   
    140. A(H  38,C  31,H  39)          100.7511         0.395012   
    141. A(Cr  0,C  31,H  39)          108.1021         0.423092   
    142. A(Cr  0,C  31,H  38)          121.1965         0.419847   
    143. A(H  42,C  32,H  43)          113.4734         0.351472   
    144. A(H  41,C  32,H  43)          110.5941         0.343591   
    145. A(P  29,C  32,H  43)          107.3956         0.379068   
    146. A(H  41,C  32,H  42)          101.4719         0.358992   
    147. A(P  29,C  32,H  42)          114.5972         0.396616   
    148. A(P  29,C  32,H  41)          109.1760         0.387379   
    149. A(H  45,C  33,H  46)          104.5758         0.363849   
    150. A(H  44,C  33,H  46)          117.0759         0.384392   
    151. A(P  29,C  33,H  46)          108.4473         0.411168   
    152. A(H  44,C  33,H  45)          103.3012         0.356255   
    153. A(P  29,C  33,H  45)          110.5645         0.380479   
    154. A(P  29,C  33,H  44)          112.3980         0.402266   
    155. A(H  47,C  34,H  48)          111.5646         0.336873   
    156. A(C  37,C  34,H  48)          101.6232         0.350609   
    157. A(P  29,C  34,H  48)          111.2563         0.372457   
    158. A(C  37,C  34,H  47)          113.5076         0.355733   
    159. A(P  29,C  34,H  47)          109.1546         0.378009   
    160. A(P  29,C  34,C  37)          109.5824         0.394024   
    161. A(H  50,C  35,H  51)          114.1962         0.332261   
    162. A(H  49,C  35,H  51)          105.1155         0.323527   
    163. A(P  30,C  35,H  51)          113.7482         0.361973   
    164. A(H  49,C  35,H  50)          109.1778         0.352545   
    165. A(P  30,C  35,H  50)          106.2162         0.395748   
    166. A(P  30,C  35,H  49)          108.2264         0.384734   
    167. A(H  53,C  36,H  54)          108.3062         0.351883   
    168. A(H  52,C  36,H  54)          111.0518         0.372555   
    169. A(P  30,C  36,H  54)          108.0546         0.405189   
    170. A(H  52,C  36,H  53)          111.2265         0.341734   
    171. A(P  30,C  36,H  53)          108.8275         0.370821   
    172. A(P  30,C  36,H  52)          109.2926         0.392982   
    173. A(H  55,C  37,H  56)          116.9802         0.309865   
    174. A(C  34,C  37,H  56)          107.1243         0.337976   
    175. A(P  30,C  37,H  56)          105.7823         0.356308   
    176. A(C  34,C  37,H  55)          112.4882         0.338730   
    177. A(P  30,C  37,H  55)          104.5711         0.357117   
    178. A(P  30,C  37,C  34)          109.5219         0.391242   
    179. D(C   3,P   1,Cr  0,P   2)   -131.9604         0.002138   
    180. D(C   3,P   1,Cr  0,C  31)    138.0178         0.002138   
    181. D(C   4,P   1,Cr  0,C   9)   -170.9795         0.002138   
    182. D(C   4,P   1,Cr  0,P  30)    -80.9560         0.002138   
    183. D(C   4,P   1,Cr  0,P   2)     99.0422         0.002138   
    184. D(C   5,P   1,Cr  0,P   2)    -16.2471         0.002138   
    185. D(C   4,P   1,Cr  0,C  31)      9.0205         0.002138   
    186. D(C   3,P   1,Cr  0,C   9)    -41.9822         0.002138   
    187. D(C   3,P   1,Cr  0,P  30)     48.0414         0.002138   
    188. D(C   7,P   2,Cr  0,C   9)    149.1649         0.002107   
    189. D(C   6,P   2,Cr  0,C   9)     22.0472         0.002107   
    190. D(C   6,P   2,Cr  0,C  31)   -157.9528         0.002107   
    191. D(C   7,P   2,Cr  0,P   1)   -123.5784         0.002107   
    192. D(C   8,P   2,Cr  0,P   1)     -6.6267         0.002107   
    193. D(C   6,P   2,Cr  0,P   1)    109.3038         0.002107   
    194. D(C   6,P   2,Cr  0,P  29)    -70.6952         0.002107   
    195. D(C   7,P   2,Cr  0,P  29)     56.4226         0.002107   
    196. D(C   7,P   2,Cr  0,C  31)    -30.8351         0.002107   
    197. D(H  11,C   3,P   1,C   5)    -81.6224         0.004064   
    198. D(H  10,C   3,P   1,C   4)     62.4271         0.004064   
    199. D(H  12,C   3,P   1,Cr  0)    165.5428         0.004064   
    200. D(H  11,C   3,P   1,Cr  0)     38.4861         0.004064   
    201. D(H  10,C   3,P   1,C   5)    165.3768         0.004064   
    202. D(H  11,C   3,P   1,C   4)    175.4278         0.004064   
    203. D(H  10,C   3,P   1,Cr  0)    -74.5146         0.004064   
    204. D(H  14,C   4,P   1,Cr  0)     66.9898         0.004121   
    205. D(H  14,C   4,P   1,C   3)    -71.5653         0.004121   
    206. D(H  13,C   4,P   1,C   5)    -58.7520         0.004121   
    207. D(H  13,C   4,P   1,C   3)     43.2900         0.004121   
    208. D(H  14,C   4,P   1,C   5)   -173.6073         0.004121   
    209. D(H  13,C   4,P   1,Cr  0)   -178.1549         0.004121   
    210. D(H  15,C   4,P   1,Cr  0)    -47.1300         0.004121   
    211. D(C   8,C   5,P   1,Cr  0)     42.2108         0.003755   
    212. D(H  17,C   5,P   1,Cr  0)    -69.3852         0.003755   
    213. D(H  16,C   5,P   1,C   4)     39.7652         0.003755   
    214. D(H  16,C   5,P   1,C   3)    -62.8752         0.003755   
    215. D(H  16,C   5,P   1,Cr  0)    167.0840         0.003755   
    216. D(C   8,C   5,P   1,C   4)    -85.1080         0.003755   
    217. D(C   8,C   5,P   1,C   3)    172.2517         0.003755   
    218. D(H  20,C   6,P   2,Cr  0)   -179.4526         0.004213   
    219. D(H  19,C   6,P   2,C   7)    169.5980         0.004213   
    220. D(H  18,C   6,P   2,C   8)   -175.4047         0.004213   
    221. D(H  18,C   6,P   2,Cr  0)     64.1440         0.004213   
    222. D(H  18,C   6,P   2,C   7)    -73.2689         0.004213   
    223. D(H  19,C   6,P   2,Cr  0)    -52.9891         0.004213   
    224. D(H  19,C   6,P   2,C   8)     67.4622         0.004213   
    225. D(H  21,C   7,P   2,C   8)     51.4858         0.004033   
    226. D(H  22,C   7,P   2,C   8)    -70.1615         0.004033   
    227. D(H  22,C   7,P   2,C   6)   -173.4114         0.004033   
    228. D(H  22,C   7,P   2,Cr  0)     51.5486         0.004033   
    229. D(H  23,C   7,P   2,Cr  0)    -65.8427         0.004033   
    230. D(H  21,C   7,P   2,C   6)    -51.7642         0.004033   
    231. D(H  21,C   7,P   2,Cr  0)    173.1959         0.004033   
    232. D(H  25,C   8,P   2,Cr  0)    -81.1900         0.003574   
    233. D(H  24,C   8,P   2,C   7)    -74.4088         0.003574   
    234. D(H  24,C   8,P   2,C   6)     27.8508         0.003574   
    235. D(P   2,C   8,C   5,H  16)   -170.3058         0.012429   
    236. D(H  24,C   8,P   2,Cr  0)    154.7148         0.003574   
    237. D(C   5,C   8,P   2,C   7)    164.8278         0.003574   
    238. D(P   2,C   8,C   5,P   1)    -47.9971         0.012429   
    239. D(C   5,C   8,P   2,C   6)    -92.9126         0.003574   
    240. D(P   2,C   8,C   5,H  17)     69.7870         0.012429   
    241. D(C   5,C   8,P   2,Cr  0)     33.9513         0.003574   
    242. D(H  24,C   8,C   5,H  17)    -46.0413         0.012429   
    243. D(H  24,C   8,C   5,H  16)     73.8660         0.012429   
    244. D(H  24,C   8,C   5,P   1)   -163.8254         0.012429   
    245. D(H  27,C   9,Cr  0,P  30)      5.1891         0.002161   
    246. D(H  27,C   9,Cr  0,P  29)    -77.4955         0.002161   
    247. D(H  27,C   9,Cr  0,P   2)   -174.8103         0.002161   
    248. D(H  27,C   9,Cr  0,P   1)    102.5054         0.002161   
    249. D(H  26,C   9,Cr  0,P  30)   -110.1122         0.002161   
    250. D(H  26,C   9,Cr  0,P  29)    167.2032         0.002161   
    251. D(H  26,C   9,Cr  0,P   2)     69.8885         0.002161   
    252. D(H  28,C   9,Cr  0,P   1)   -134.0574         0.002161   
    253. D(H  26,C   9,Cr  0,P   1)    -12.7959         0.002161   
    254. D(C  34,P  29,P   1,C   4)    -64.7095         0.001500   
    255. D(C  33,P  29,P   1,C   5)     64.7102         0.001500   
    256. D(C  33,P  29,P   1,C   4)    179.9994         0.001500   
    257. D(C  33,P  29,P   1,C   3)    -51.0025         0.001500   
    258. D(C  32,P  29,P   1,C   4)     51.0020         0.001500   
    259. D(C  34,P  29,Cr  0,P   2)   -163.7515         0.002139   
    260. D(C  32,P  29,P   1,C   3)    180.0000         0.001500   
    261. D(C  33,P  29,Cr  0,C  31)    170.9795         0.002139   
    262. D(C  33,P  29,Cr  0,P  30)    -99.0443         0.002139   
    263. D(C  32,P  29,P   1,C   5)    -64.2873         0.001500   
    264. D(C  33,P  29,Cr  0,C   9)     -9.0205         0.002139   
    265. D(C  33,P  29,Cr  0,P   2)     80.9576         0.002139   
    266. D(C  32,P  29,Cr  0,C  31)     41.9813         0.002139   
    267. D(C  32,P  29,Cr  0,P  30)    131.9576         0.002139   
    268. D(C  34,P  29,P   1,C   3)     64.2885         0.001500   
    269. D(C  32,P  29,Cr  0,P   2)    -48.0406         0.002139   
    270. D(C  32,P  29,Cr  0,C   9)   -138.0187         0.002139   
    271. D(C  37,P  30,P   2,C   7)     63.0529         0.001500   
    272. D(C  37,P  30,P   2,C   6)    -64.0646         0.001500   
    273. D(C  36,P  30,P   2,C   7)   -179.9990         0.001500   
    274. D(C  36,P  30,P   2,C   6)     52.8835         0.001500   
    275. D(C  35,P  30,P   2,C   8)     64.0637         0.001500   
    276. D(C  35,P  30,P   2,C   7)    -52.8876         0.001500   
    277. D(C  35,P  30,P   2,C   6)    179.9949         0.001500   
    278. D(C  37,P  30,Cr  0,P   1)   -173.3687         0.002107   
    279. D(C  36,P  30,Cr  0,C  31)   -149.1642         0.002107   
    280. D(C  36,P  30,Cr  0,P  29)    123.5779         0.002107   
    281. D(C  36,P  30,Cr  0,C   9)     30.8358         0.002107   
    282. D(C  36,P  30,Cr  0,P   1)    -56.4211         0.002107   
    283. D(C  35,P  30,Cr  0,C  31)    -22.0530         0.002107   
    284. D(C  36,P  30,P   2,C   8)    -63.0477         0.001500   
    285. D(C  35,P  30,Cr  0,P  29)   -109.3109         0.002107   
    286. D(C  35,P  30,Cr  0,C   9)    157.9470         0.002107   
    287. D(C  35,P  30,Cr  0,P   1)     70.6901         0.002107   
    288. D(H  40,C  31,C   9,H  27)     56.5660         0.001500   
    289. D(H  40,C  31,C   9,H  26)    -58.7353         0.001500   
    290. D(H  39,C  31,C   9,H  28)    -56.5629         0.001500   
    291. D(H  39,C  31,C   9,H  26)     64.6987         0.001500   
    292. D(H  38,C  31,C   9,H  28)     58.7384         0.001500   
    293. D(H  38,C  31,C   9,H  27)    -64.6987         0.001500   
    294. D(H  38,C  31,C   9,H  26)   -180.0000         0.001500   
    295. D(H  40,C  31,Cr  0,P   1)    -45.9394         0.002161   
    296. D(H  39,C  31,Cr  0,P  30)    174.8109         0.002161   
    297. D(H  39,C  31,Cr  0,P  29)   -102.5045         0.002161   
    298. D(H  39,C  31,Cr  0,P   2)     -5.1897         0.002161   
    299. D(H  39,C  31,Cr  0,P   1)     77.4946         0.002161   
    300. D(H  39,C  31,C   9,H  27)   -180.0000         0.001500   
    301. D(H  38,C  31,Cr  0,P  30)    -69.8878         0.002161   
    302. D(H  38,C  31,Cr  0,P  29)     12.7968         0.002161   
    303. D(H  38,C  31,Cr  0,P   2)    110.1115         0.002161   
    304. D(H  38,C  31,Cr  0,P   1)   -167.2041         0.002161   
    305. D(H  41,C  32,P  29,Cr  0)     74.5142         0.004064   
    306. D(H  43,C  32,P  29,Cr  0)   -165.5379         0.004064   
    307. D(H  42,C  32,P  29,C  34)     81.6202         0.004064   
    308. D(H  42,C  32,P  29,C  33)   -175.4345         0.004064   
    309. D(H  42,C  32,P  29,Cr  0)    -38.4892         0.004064   
    310. D(H  41,C  32,P  29,C  34)   -165.3764         0.004064   
    311. D(H  41,C  32,P  29,C  33)    -62.4311         0.004064   
    312. D(H  46,C  33,P  29,Cr  0)     47.1260         0.004123   
    313. D(H  45,C  33,P  29,C  34)    173.6086         0.004123   
    314. D(H  45,C  33,P  29,C  32)     71.5717         0.004123   
    315. D(H  45,C  33,P  29,Cr  0)    -66.9843         0.004123   
    316. D(H  44,C  33,P  29,C  34)     58.7489         0.004123   
    317. D(H  44,C  33,P  29,C  32)    -43.2880         0.004123   
    318. D(H  44,C  33,P  29,Cr  0)    178.1560         0.004123   
    319. D(H  48,C  34,P  29,Cr  0)     69.3734         0.003755   
    320. D(H  47,C  34,P  29,C  33)    -39.7560         0.003755   
    321. D(H  47,C  34,P  29,C  32)     62.8799         0.003755   
    322. D(H  47,C  34,P  29,Cr  0)   -167.0801         0.003755   
    323. D(C  37,C  34,P  29,C  33)     85.1153         0.003755   
    324. D(C  37,C  34,P  29,C  32)   -172.2489         0.003755   
    325. D(C  37,C  34,P  29,Cr  0)    -42.2088         0.003755   
    326. D(H  51,C  35,P  30,Cr  0)    179.4543         0.004214   
    327. D(H  50,C  35,P  30,C  37)    -67.4688         0.004214   
    328. D(H  50,C  35,P  30,C  36)   -169.6003         0.004214   
    329. D(H  50,C  35,P  30,Cr  0)     52.9923         0.004214   
    330. D(H  49,C  35,P  30,C  37)    175.4049         0.004214   
    331. D(H  49,C  35,P  30,C  36)     73.2734         0.004214   
    332. D(H  49,C  35,P  30,Cr  0)    -64.1340         0.004214   
    333. D(H  54,C  36,P  30,Cr  0)     65.8468         0.004030   
    334. D(H  53,C  36,P  30,C  37)     70.1577         0.004030   
    335. D(H  53,C  36,P  30,C  35)    173.4096         0.004030   
    336. D(H  53,C  36,P  30,Cr  0)    -51.5521         0.004030   
    337. D(H  52,C  36,P  30,C  37)    -51.4859         0.004030   
    338. D(H  52,C  36,P  30,C  35)     51.7659         0.004030   
    339. D(H  52,C  36,P  30,Cr  0)   -173.1957         0.004030   
    340. D(H  55,C  37,C  34,H  48)     46.0471         0.012419   
    341. D(H  55,C  37,C  34,H  47)    -73.8653         0.012419   
    342. D(H  55,C  37,C  34,P  29)    163.8237         0.012419   
    343. D(P  30,C  37,C  34,H  48)    -69.7807         0.012419   
    344. D(P  30,C  37,C  34,H  47)    170.3069         0.012419   
    345. D(P  30,C  37,C  34,P  29)     47.9959         0.012419   
    346. D(H  56,C  37,P  30,Cr  0)     81.1863         0.003575   
    347. D(H  55,C  37,P  30,C  36)     74.4105         0.003575   
    348. D(H  55,C  37,P  30,C  35)    -27.8437         0.003575   
    349. D(H  55,C  37,P  30,Cr  0)   -154.7170         0.003575   
    350. D(C  34,C  37,P  30,C  36)   -164.8277         0.003575   
    351. D(C  34,C  37,P  30,C  35)     92.9182         0.003575   
    352. D(C  34,C  37,P  30,Cr  0)    -33.9551         0.003575   
    -----------------------------------------------------------------

Number of atoms                         .... 57
Number of degrees of freedom            .... 352


         *************************************************************
         *                GEOMETRY OPTIMIZATION CYCLE   1            *
         *************************************************************
---------------------------------
CARTESIAN COORDINATES (ANGSTROEM)
---------------------------------
  Cr    -2.544700   -2.804500    8.309800
  P     -1.829300   -0.863600    7.212100
  P     -1.706700   -1.684700   10.197000
  C     -2.874000    0.055200    6.024600
  C     -0.230600   -0.842800    6.329600
  C     -1.548200    0.461000    8.466900
  C     -2.873000   -1.043600   11.440900
  C     -0.426900   -2.391600   11.298800
  C     -0.846000   -0.124200    9.674300
  C     -4.454000   -1.816500    8.589000
  H     -2.915600   -0.419400    5.221900
  H     -3.740800    0.102500    6.249000
  H     -2.463500    0.920400    5.887500
  H     -0.052800   -0.058200    5.978100
  H     -0.258900   -1.427900    5.563400
  H      0.356900   -1.180300    6.833200
  H     -1.070700    1.181200    8.060500
  H     -2.392100    0.764400    8.857400
  H     -3.325900   -1.782900   11.833200
  H     -3.471600   -0.533400   10.988100
  H     -2.408200   -0.552000   12.241200
  H     -0.171700   -1.763400   11.904600
  H      0.347500   -2.693600   10.742100
  H     -0.763500   -3.081400   11.691100
  H     -0.901500    0.493200   10.501900
  H      0.101400   -0.414300    9.366000
  H     -4.542600   -0.987200    8.449400
  H     -4.990200   -2.126400    8.030600
  H     -4.712700   -1.943700    9.459900
  P     -3.260100   -4.745300    9.407500
  P     -3.382600   -3.924300    6.422700
  C     -0.635400   -3.792500    8.030600
  C     -2.215400   -5.664100   10.595000
  C     -4.858700   -4.766200   10.290000
  C     -3.541200   -6.070000    8.152800
  C     -2.216400   -4.565300    5.178700
  C     -4.662500   -3.217300    5.320800
  C     -4.243400   -5.484700    6.945300
  H     -0.546800   -4.621800    8.170200
  H     -0.099200   -3.482600    8.589000
  H     -0.376600   -3.665300    7.159700
  H     -2.173700   -5.189600   11.397700
  H     -1.348500   -5.711500   10.370600
  H     -2.625800   -6.529300   10.732100
  H     -5.036500   -5.550700   10.641500
  H     -4.830400   -4.181000   11.056200
  H     -5.446200   -4.428700    9.786500
  H     -4.018700   -6.790100    8.559100
  H     -2.697300   -6.373300    7.762200
  H     -1.763500   -3.826000    4.786500
  H     -1.617800   -5.075500    5.631600
  H     -2.681100   -5.056900    4.378400
  H     -4.917700   -3.845500    4.715000
  H     -5.436800   -2.915400    5.877500
  H     -4.325900   -2.527600    4.928500
  H     -4.187900   -6.102100    6.117700
  H     -5.190800   -5.194700    7.253600

----------------------------
CARTESIAN COORDINATES (A.U.)
----------------------------
  NO LB      ZA    FRAG     MASS         X           Y           Z
   0 Cr   24.0000    0    52.000   -4.808786   -5.299737   15.703246
   1 P    15.0000    0    30.974   -3.456876   -1.631967   13.628894
   2 P    15.0000    0    30.974   -3.225196   -3.183622   19.269537
   3 C     6.0000    0    12.011   -5.431073    0.104313   11.384844
   4 C     6.0000    0    12.011   -0.435771   -1.592661   11.961211
   5 C     6.0000    0    12.011   -2.925674    0.871164   16.000122
   6 C     6.0000    0    12.011   -5.429183   -1.972118   21.620168
   7 C     6.0000    0    12.011   -0.806724   -4.519469   21.351638
   8 C     6.0000    0    12.011   -1.598708   -0.234704   18.281778
   9 C     6.0000    0    12.011   -8.416840   -3.432688   16.230858
  10 H     1.0000    0     1.008   -5.509686   -0.792551    9.867961
  11 H     1.0000    0     1.008   -7.069088    0.193697   11.808899
  12 H     1.0000    0     1.008   -4.655340    1.739304   11.125763
  13 H     1.0000    0     1.008   -0.099778   -0.109982   11.296972
  14 H     1.0000    0     1.008   -0.489250   -2.698340   10.513302
  15 H     1.0000    0     1.008    0.674443   -2.230444   12.912877
  16 H     1.0000    0     1.008   -2.023330    2.232145   15.232138
  17 H     1.0000    0     1.008   -4.520414    1.444507   16.738060
  18 H     1.0000    0     1.008   -6.285040   -3.369193   22.361507
  19 H     1.0000    0     1.008   -6.560373   -1.007980   20.764500
  20 H     1.0000    0     1.008   -4.550838   -1.043129   23.132516
  21 H     1.0000    0     1.008   -0.324466   -3.332343   22.496434
  22 H     1.0000    0     1.008    0.656680   -5.090166   20.299627
  23 H     1.0000    0     1.008   -1.442806   -5.823002   22.092977
  24 H     1.0000    0     1.008   -1.703588    0.932013   19.845715
  25 H     1.0000    0     1.008    0.191618   -0.782914   17.699175
  26 H     1.0000    0     1.008   -8.584270   -1.865538   15.967052
  27 H     1.0000    0     1.008   -9.430111   -4.018314   15.175635
  28 H     1.0000    0     1.008   -8.905712   -3.673061   17.876620
  29 P    15.0000    0    30.974   -6.160696   -8.967317   17.777599
  30 P    15.0000    0    30.974   -6.392188   -7.415852   12.137144
  31 C     6.0000    0    12.011   -1.200732   -7.166786   15.175635
  32 C     6.0000    0    12.011   -4.186499  -10.703598   20.021648
  33 C     6.0000    0    12.011   -9.181612   -9.006813   19.445282
  34 C     6.0000    0    12.011   -6.691898  -11.470638   15.406559
  35 C     6.0000    0    12.011   -4.188389   -8.627167    9.786325
  36 C     6.0000    0    12.011   -8.810848   -6.079816   10.054855
  37 C     6.0000    0    12.011   -8.018864  -10.364581   13.124715
  38 H     1.0000    0     1.008   -1.033302   -8.733936   15.439440
  39 H     1.0000    0     1.008   -0.187461   -6.581160   16.230858
  40 H     1.0000    0     1.008   -0.711671   -6.926413   13.529872
  41 H     1.0000    0     1.008   -4.107698   -9.806923   21.538532
  42 H     1.0000    0     1.008   -2.548296  -10.793171   19.597594
  43 H     1.0000    0     1.008   -4.962043  -12.338589   20.280730
  44 H     1.0000    0     1.008   -9.517606  -10.489303   20.109521
  45 H     1.0000    0     1.008   -9.128133   -7.900945   20.893190
  46 H     1.0000    0     1.008  -10.291826   -8.369030   18.493805
  47 H     1.0000    0     1.008   -7.594242  -12.831429   16.174355
  48 H     1.0000    0     1.008   -5.097158  -12.043792   14.668432
  49 H     1.0000    0     1.008   -3.332532   -7.230092    9.045174
  50 H     1.0000    0     1.008   -3.057199   -9.591305   10.642182
  51 H     1.0000    0     1.008   -5.066545   -9.556156    8.273977
  52 H     1.0000    0     1.008   -9.293106   -7.266942    8.910059
  53 H     1.0000    0     1.008  -10.274063   -5.509308   11.106865
  54 H     1.0000    0     1.008   -8.174766   -4.776472    9.313515
  55 H     1.0000    0     1.008   -7.913984  -11.531298   11.560778
  56 H     1.0000    0     1.008   -9.809190   -9.816560   13.707317

--------------------------------
INTERNAL COORDINATES (ANGSTROEM)
--------------------------------
 Cr     0   0   0     0.000000000000     0.00000000     0.00000000
 P      1   0   0     2.341759009804     0.00000000     0.00000000
 P      1   2   0     2.348982733014    82.67485180     0.00000000
 C      2   1   3     1.829138534939   123.10423550   228.03955611
 C      2   1   3     1.826220298869   120.22483701    99.04218510
 C      2   1   3     1.846105470985   108.81992765   343.75286506
 C      3   1   2     1.821689356065   119.20650351   109.30380212
 C      3   1   2     1.830726328537   123.28749470   236.42157839
 C      6   2   1     1.514383914336   109.58807663    42.21084627
 C      1   2   3     2.167838354214    87.23130470    89.97826754
 H      4   2   1     0.933436130648   109.16808062   285.48538599
 H      4   2   1     0.896624163181   114.59266017    38.48614946
 H      4   2   1     0.967407721698   107.39128571   165.54283939
 H      5   2   1     0.877930663549   112.39223633   181.84513440
 H      5   2   1     0.964471534054   110.56686166    66.98984396
 H      5   2   1     0.844201077943   108.44520522   312.86998781
 H      6   2   1     0.954911121519   109.14850160   167.08399901
 H      6   2   1     0.978115034135   111.25705128   290.61483159
 H      7   3   1     0.951620822597   108.22725998    64.14400184
 H      7   3   1     0.907553767002   106.22698811   307.01094852
 H      7   3   1     1.047945461367   113.74035148   180.54739562
 H      8   3   1     0.909261194597   109.29357357   173.19588536
 H      8   3   1     1.000407042158   108.83200652    51.54863092
 H      8   3   1     0.861987755133   108.05446991   294.15733263
 H      9   6   2     1.034013911899   112.48922624   196.17457048
 H      9   6   2     1.037677049953   107.12755296    66.27520021
 H     10   1   2     0.845622025494   121.19647482   347.20412109
 H     10   1   2     0.833881892117   108.10212836   102.50540546
 H     10   1   2     0.917372519754   107.90523090   225.94255229
 P      1   2   3     2.341676128332   179.99863099    48.04022138
 P      1   2   3     2.348866718228    97.32591349   180.00183317
 C      1   2   3     2.167838354214    92.76869530   269.97826754
 C     30   1  10     1.829138534939   123.10409050   221.98133302
 C     30   1  10     1.826133899800   120.22946588   350.97946843
 C     30   1  10     1.846109257330   108.82297864   106.27044623
 C     31   1   2     1.821658431210   119.21097288    70.69014015
 C     31   1   2     1.830895032491   123.28464892   303.57893512
 C     35  30   1     1.514502287882   109.58238994   317.79115655
 H     32   1   2     0.845622025494   121.19647482   192.79587891
 H     32   1   2     0.833881892117   108.10212836    77.49459454
 H     32   1   2     0.917400724874   107.91044242   314.06055524
 H     33  30   1     0.933389752461   109.17604656    74.51417610
 H     33  30   1     0.896726117608   114.59722179   321.51075687
 H     33  30   1     0.967365292948   107.39561772   194.46209911
 H     34  30   1     0.877841295452   112.39802157   178.15596936
 H     34  30   1     0.964532202677   110.56451938   293.01565617
 H     34  30   1     0.844141427724   108.44729330    47.12599025
 H     35  30   1     0.954793145137   109.15455483   192.91992515
 H     35  30   1     0.978123949201   111.25626755    69.37343049
 H     36  31   1     0.951579602556   108.22643043   295.86596086
 H     36  31   1     0.907603663501   106.21622867    52.99225228
 H     36  31   1     1.047901111747   113.74820618   179.45430027
 H     37  31   1     0.909261194597   109.29257431   186.80426188
 H     37  31   1     1.000299450165   108.82745798   308.44791843
 H     37  31   1     0.861907732881   108.05462985    65.84679255
 H     38  35  30     1.034013911899   112.48820464   163.82368262
 H     38  35  30     1.037649097720   107.12434615   293.71589951

---------------------------
INTERNAL COORDINATES (A.U.)
---------------------------
 Cr     0   0   0     0.000000000000     0.00000000     0.00000000
 P      1   0   0     4.425283200173     0.00000000     0.00000000
 P      1   2   0     4.438934058707    82.67485180     0.00000000
 C      2   1   3     3.456570892037   123.10423550   228.03955611
 C      2   1   3     3.451056225070   120.22483701    99.04218510
 C      2   1   3     3.488633754495   108.81992765   343.75286506
 C      3   1   2     3.442493984042   119.20650351   109.30380212
 C      3   1   2     3.459571387095   123.28749470   236.42157839
 C      6   2   1     2.861770859711   109.58807663    42.21084627
 C      1   2   3     4.096620792074    87.23130470    89.97826754
 H      4   2   1     1.763938650433   109.16808062   285.48538599
 H      4   2   1     1.694374113468   114.59266017    38.48614946
 H      4   2   1     1.828135653849   107.39128571   165.54283939
 H      5   2   1     1.659048518680   112.39223633   181.84513440
 H      5   2   1     1.822587063324   110.56686166    66.98984396
 H      5   2   1     1.595308839273   108.44520522   312.86998781
 H      6   2   1     1.804520501906   109.14850160   167.08399901
 H      6   2   1     1.848369541985   111.25705128   290.61483159
 H      7   3   1     1.798302738045   108.22725998    64.14400184
 H      7   3   1     1.715028071443   106.22698811   307.01094852
 H      7   3   1     1.980329925270   113.74035148   180.54739562
 H      8   3   1     1.718254641990   109.29357357   173.19588536
 H      8   3   1     1.890495332125   108.83200652    51.54863092
 H      8   3   1     1.628920787996   108.05446991   294.15733263
 H      9   6   2     1.954003112153   112.48922624   196.17457048
 H      9   6   2     1.960925439867   107.12755296    66.27520021
 H     10   1   2     1.597994040995   121.19647482   347.20412109
 H     10   1   2     1.575808404136   108.10212836   102.50540546
 H     10   1   2     1.733582825121   107.90523090   225.94255229
 P      1   2   3     4.425126576889   179.99863099    48.04022138
 P      1   2   3     4.438714822534    97.32591349   180.00183317
 C      1   2   3     4.096620792074    92.76869530   269.97826754
 C     30   1  10     3.456570892037   123.10409050   221.98133302
 C     30   1  10     3.450892954492   120.22946588   350.97946843
 C     30   1  10     3.488640909651   108.82297864   106.27044623
 C     31   1   2     3.442435544536   119.21097288    70.69014015
 C     31   1   2     3.459890191365   123.28464892   303.57893512
 C     35  30   1     2.861994553294   109.58238994   317.79115655
 H     32   1   2     1.597994040995   121.19647482   192.79587891
 H     32   1   2     1.575808404136   108.10212836    77.49459454
 H     32   1   2     1.733636125073   107.91044242   314.06055524
 H     33  30   1     1.763851008361   109.17604656    74.51417610
 H     33  30   1     1.694566779413   114.59722179   321.51075687
 H     33  30   1     1.828055475132   107.39561772   194.46209911
 H     34  30   1     1.658879637450   112.39802157   178.15596936
 H     34  30   1     1.822701710406   110.56451938   293.01565617
 H     34  30   1     1.595196116696   108.44729330    47.12599025
 H     35  30   1     1.804297558854   109.15455483   192.91992515
 H     35  30   1     1.848386389019   111.25626755    69.37343049
 H     36  31   1     1.798224843456   108.22643043   295.86596086
 H     36  31   1     1.715122362160   106.21622867    52.99225228
 H     36  31   1     1.980246116633   113.74820618   179.45430027
 H     37  31   1     1.718254641990   109.29257431   186.80426188
 H     37  31   1     1.890292012723   108.82745798   308.44791843
 H     37  31   1     1.628769567854   108.05462985    65.84679255
 H     38  35  30     1.954003112153   112.48820464   163.82368262
 H     38  35  30     1.960872617802   107.12434615   293.71589951

---------------------
BASIS SET INFORMATION
---------------------
There are 4 groups of distinct atoms

 Group   1 Type Cr  : 17s11p7d1f contracted to 6s4p4d1f pattern {842111/6311/4111/1}
 Group   2 Type P   : 14s9p3d1f contracted to 5s5p2d1f pattern {73211/51111/21/1}
 Group   3 Type C   : 11s6p2d1f contracted to 5s3p2d1f pattern {62111/411/11/1}
 Group   4 Type H   : 5s1p contracted to 3s1p pattern {311/1}

Atom   0Cr   basis set group =>   1
Atom   1P    basis set group =>   2
Atom   2P    basis set group =>   2
Atom   3C    basis set group =>   3
Atom   4C    basis set group =>   3
Atom   5C    basis set group =>   3
Atom   6C    basis set group =>   3
Atom   7C    basis set group =>   3
Atom   8C    basis set group =>   3
Atom   9C    basis set group =>   3
Atom  10H    basis set group =>   4
Atom  11H    basis set group =>   4
Atom  12H    basis set group =>   4
Atom  13H    basis set group =>   4
Atom  14H    basis set group =>   4
Atom  15H    basis set group =>   4
Atom  16H    basis set group =>   4
Atom  17H    basis set group =>   4
Atom  18H    basis set group =>   4
Atom  19H    basis set group =>   4
Atom  20H    basis set group =>   4
Atom  21H    basis set group =>   4
Atom  22H    basis set group =>   4
Atom  23H    basis set group =>   4
Atom  24H    basis set group =>   4
Atom  25H    basis set group =>   4
Atom  26H    basis set group =>   4
Atom  27H    basis set group =>   4
Atom  28H    basis set group =>   4
Atom  29P    basis set group =>   2
Atom  30P    basis set group =>   2
Atom  31C    basis set group =>   3
Atom  32C    basis set group =>   3
Atom  33C    basis set group =>   3
Atom  34C    basis set group =>   3
Atom  35C    basis set group =>   3
Atom  36C    basis set group =>   3
Atom  37C    basis set group =>   3
Atom  38H    basis set group =>   4
Atom  39H    basis set group =>   4
Atom  40H    basis set group =>   4
Atom  41H    basis set group =>   4
Atom  42H    basis set group =>   4
Atom  43H    basis set group =>   4
Atom  44H    basis set group =>   4
Atom  45H    basis set group =>   4
Atom  46H    basis set group =>   4
Atom  47H    basis set group =>   4
Atom  48H    basis set group =>   4
Atom  49H    basis set group =>   4
Atom  50H    basis set group =>   4
Atom  51H    basis set group =>   4
Atom  52H    basis set group =>   4
Atom  53H    basis set group =>   4
Atom  54H    basis set group =>   4
Atom  55H    basis set group =>   4
Atom  56H    basis set group =>   4
---------------------------------
AUXILIARY/J BASIS SET INFORMATION
---------------------------------
There are 4 groups of distinct atoms

 Group   1 Type Cr  : 19s5p5d3f3g contracted to 8s5p5d2f3g pattern {121111111/11111/11111/21/111}
 Group   2 Type P   : 14s5p5d2f1g contracted to 8s4p3d1f1g pattern {71111111/2111/311/2/1}
 Group   3 Type C   : 12s5p4d2f1g contracted to 6s4p3d1f1g pattern {711111/2111/211/2/1}
 Group   4 Type H   : 5s2p1d contracted to 3s1p1d pattern {311/2/1}

Atom   0Cr   basis set group =>   1
Atom   1P    basis set group =>   2
Atom   2P    basis set group =>   2
Atom   3C    basis set group =>   3
Atom   4C    basis set group =>   3
Atom   5C    basis set group =>   3
Atom   6C    basis set group =>   3
Atom   7C    basis set group =>   3
Atom   8C    basis set group =>   3
Atom   9C    basis set group =>   3
Atom  10H    basis set group =>   4
Atom  11H    basis set group =>   4
Atom  12H    basis set group =>   4
Atom  13H    basis set group =>   4
Atom  14H    basis set group =>   4
Atom  15H    basis set group =>   4
Atom  16H    basis set group =>   4
Atom  17H    basis set group =>   4
Atom  18H    basis set group =>   4
Atom  19H    basis set group =>   4
Atom  20H    basis set group =>   4
Atom  21H    basis set group =>   4
Atom  22H    basis set group =>   4
Atom  23H    basis set group =>   4
Atom  24H    basis set group =>   4
Atom  25H    basis set group =>   4
Atom  26H    basis set group =>   4
Atom  27H    basis set group =>   4
Atom  28H    basis set group =>   4
Atom  29P    basis set group =>   2
Atom  30P    basis set group =>   2
Atom  31C    basis set group =>   3
Atom  32C    basis set group =>   3
Atom  33C    basis set group =>   3
Atom  34C    basis set group =>   3
Atom  35C    basis set group =>   3
Atom  36C    basis set group =>   3
Atom  37C    basis set group =>   3
Atom  38H    basis set group =>   4
Atom  39H    basis set group =>   4
Atom  40H    basis set group =>   4
Atom  41H    basis set group =>   4
Atom  42H    basis set group =>   4
Atom  43H    basis set group =>   4
Atom  44H    basis set group =>   4
Atom  45H    basis set group =>   4
Atom  46H    basis set group =>   4
Atom  47H    basis set group =>   4
Atom  48H    basis set group =>   4
Atom  49H    basis set group =>   4
Atom  50H    basis set group =>   4
Atom  51H    basis set group =>   4
Atom  52H    basis set group =>   4
Atom  53H    basis set group =>   4
Atom  54H    basis set group =>   4
Atom  55H    basis set group =>   4
Atom  56H    basis set group =>   4


           ************************************************************
           *        Program running with 16 parallel MPI-processes    *
           *              working on a common directory               *
           ************************************************************
------------------------------------------------------------------------------
                             ORCA STARTUP CALCULATIONS
                           -- RI-GTO INTEGRALS CHOSEN --
------------------------------------------------------------------------------
------------------------------------------------------------------------------
                   ___                                                        
                  /   \      - P O W E R E D   B Y -                         
                 /     \                                                     
                 |  |  |   _    _      __       _____    __    __             
                 |  |  |  | |  | |    /  \     |  _  \  |  |  /  |          
                  \  \/   | |  | |   /    \    | | | |  |  | /  /          
                 / \  \   | |__| |  /  /\  \   | |_| |  |  |/  /          
                |  |  |   |  __  | /  /__\  \  |    /   |      \           
                |  |  |   | |  | | |   __   |  |    \   |  |\   \          
                \     /   | |  | | |  |  |  |  | |\  \  |  | \   \       
                 \___/    |_|  |_| |__|  |__|  |_| \__\ |__|  \__/        
                                                                              
                      - O R C A' S   B I G   F R I E N D -                    
                                      &                                       
                       - I N T E G R A L  F E E D E R -                       
                                                                              
 v1 FN, 2020, v2 2021, v3 2022-2024                                           
------------------------------------------------------------------------------


----------------------
SHARK INTEGRAL PACKAGE
----------------------

Number of atoms                             ...     57
Number of basis functions                   ...    855
Number of shells                            ...    373
Maximum angular momentum                    ...      3
Integral batch strategy                     ... SHARK/LIBINT Hybrid
RI-J (if used) integral strategy            ... SPLIT-RIJ (Revised 2003 algorithm where possible)
Printlevel                                  ...      1
Contraction scheme used                     ... SEGMENTED contraction
Prescreening option                         ... SCHWARTZ
   Thresh                                   ... 2.500e-11
   Tcut                                     ... 2.500e-12
   Tpresel                                  ... 2.500e-12 
Coulomb Range Separation                    ... NOT USED
Exchange Range Separation                   ... NOT USED
Multipole approximations                    ... NOT USED
Finite Nucleus Model                        ... NOT USED
CABS basis                                  ... NOT available
Auxiliary Coulomb fitting basis             ... AVAILABLE
   # of basis functions in Aux-J            ...   1397
   # of shells in Aux-J                     ...    491
   Maximum angular momentum in Aux-J        ...      4
Auxiliary J/K fitting basis                 ... NOT available
Auxiliary Correlation fitting basis         ... NOT available
Auxiliary 'external' fitting basis          ... NOT available

Checking pre-screening integrals            ... done (  0.0 sec) Dimension = 373
Check shell pair data                       ... done (  0.0 sec)
Shell pair information
Shell pair cut-off parameter TPreSel        ...   2.5e-12
Total number of shell pairs                 ...     69751
Shell pairs after pre-screening             ...     52562
Total number of primitive shell pairs       ...    213503
Primitive shell pairs kept                  ...    105995
          la=0 lb=0:  16552 shell pairs
          la=1 lb=0:  16234 shell pairs
          la=1 lb=1:   4037 shell pairs
          la=2 lb=0:   6608 shell pairs
          la=2 lb=1:   3288 shell pairs
          la=2 lb=2:    697 shell pairs
          la=3 lb=0:   2924 shell pairs
          la=3 lb=1:   1460 shell pairs
          la=3 lb=2:    608 shell pairs
          la=3 lb=3:    154 shell pairs

Calculating one electron integrals          ... done (  0.0 sec)
done (  0.2 sec)
Calculating Nuclear repulsion               ... done (  0.0 sec) ENN=   3072.796547044305 Eh

Diagonalization of the overlap matrix:
Smallest eigenvalue                        ... 8.360e-05
Time for diagonalization                   ...    0.124 sec
Threshold for overlap eigenvalues          ... 1.000e-07
Number of eigenvalues below threshold      ... 0
Time for construction of square roots      ...    0.085 sec
Total time needed                          ...    0.231 sec

-------------------
DFT GRID GENERATION
-------------------

General Integration Accuracy     IntAcc      ... 4.959
Radial Grid Type                 RadialGrid  ... OptM3 with GC (2021)
Angular Grid (max. ang.)         AngularGrid ... 6 (Lebedev-590)
Angular grid pruning method      GridPruning ... 4 (adaptive)
Weight generation scheme         WeightScheme... mBecke (2022)
Basis function cutoff            BFCut       ... 1.0000e-11
Integration weight cutoff        WCut        ... 1.0000e-14
Partially contracted basis set               ... off
Rotationally invariant grid construction     ... off
Angular grids for H and He will be reduced by one unit
Core-polarized basis detected: some atoms will have their core
                               angular grid increased.

Total number of grid points                  ...   600482
Total number of batches                      ...     9414
Average number of points per batch           ...       63
Average number of grid points per atom       ...    10535

--------------------
COSX GRID GENERATION
--------------------

GRIDX 1
-------
General Integration Accuracy     IntAcc      ... 4.020
Radial Grid Type                 RadialGrid  ... OptM3 with GC (2021)
Angular Grid (max. ang.)         AngularGrid ... 2 (Lebedev-110)
Angular grid pruning method      GridPruning ... 4 (adaptive)
Weight generation scheme         WeightScheme... mBecke (2022)
Basis function cutoff            BFCut       ... 1.0000e-11
Integration weight cutoff        WCut        ... 1.0000e-14
Partially contracted basis set               ... on
Rotationally invariant grid construction     ... off
Angular grids for H and He will be reduced by one unit
Core-polarized basis detected: some atoms will have their core
                               angular grid increased.

Total number of grid points                  ...    63573
Total number of batches                      ...      526
Average number of points per batch           ...      120
Average number of grid points per atom       ...     1115
UseSFitting                                  ... on

GRIDX 2
-------
General Integration Accuracy     IntAcc      ... 4.338
Radial Grid Type                 RadialGrid  ... OptM3 with GC (2021)
Angular Grid (max. ang.)         AngularGrid ... 3 (Lebedev-194)
Angular grid pruning method      GridPruning ... 4 (adaptive)
Weight generation scheme         WeightScheme... mBecke (2022)
Basis function cutoff            BFCut       ... 1.0000e-11
Integration weight cutoff        WCut        ... 1.0000e-14
Partially contracted basis set               ... on
Rotationally invariant grid construction     ... off
Angular grids for H and He will be reduced by one unit
Core-polarized basis detected: some atoms will have their core
                               angular grid increased.

Total number of grid points                  ...   133335
Total number of batches                      ...     1072
Average number of points per batch           ...      124
Average number of grid points per atom       ...     2339
UseSFitting                                  ... on

GRIDX 3
-------
General Integration Accuracy     IntAcc      ... 4.871
Radial Grid Type                 RadialGrid  ... OptM3 with GC (2021)
Angular Grid (max. ang.)         AngularGrid ... 4 (Lebedev-302)
Angular grid pruning method      GridPruning ... 4 (adaptive)
Weight generation scheme         WeightScheme... mBecke (2022)
Basis function cutoff            BFCut       ... 1.0000e-11
Integration weight cutoff        WCut        ... 1.0000e-14
Partially contracted basis set               ... on
Rotationally invariant grid construction     ... off
Angular grids for H and He will be reduced by one unit
Core-polarized basis detected: some atoms will have their core
                               angular grid increased.

Total number of grid points                  ...   261814
Total number of batches                      ...     2070
Average number of points per batch           ...      126
Average number of grid points per atom       ...     4593
UseSFitting                                  ... on
Initializing property integral containers    ... done (  0.0 sec)

SHARK setup successfully completed in   9.5 seconds

Maximum memory used throughout the entire STARTUP-calculation: 196.2 MB


           ************************************************************
           *        Program running with 16 parallel MPI-processes    *
           *              working on a common directory               *
           ************************************************************
-------------------------------------------------------------------------------
                                 ORCA GUESS
                   Start orbitals & Density for SCF / CASSCF
-------------------------------------------------------------------------------

------------
SCF SETTINGS
------------
Hamiltonian:
 Density Functional     Method          .... DFT(GTOs)
 Exchange Functional    Exchange        .... PBE
   PBE kappa parameter   XKappa         ....  0.804000
   PBE mue parameter    XMuePBE         ....  0.219520
 Correlation Functional Correlation     .... PBE
   PBE beta parameter  CBetaPBE         ....  0.066725
 LDA part of GGA corr.  LDAOpt          .... PW91-LDA
 Gradients option       PostSCFGGA      .... off
 Hybrid DFT is turned on
   Fraction HF Exchange ScalHFX         ....  0.250000
   Scaling of DF-GGA-X  ScalDFX         ....  0.750000
   Scaling of DF-GGA-C  ScalDFC         ....  1.000000
   Scaling of DF-LDA-C  ScalLDAC        ....  1.000000
   Perturbative correction              ....  0.000000
   NL short-range parameter             ....  6.900000
 RI-approximation to the Coulomb term is turned on
   Number of AuxJ basis functions       .... 1397
   RIJ-COSX (HFX calculated with COS-X)).... on


General Settings:
 Integral files         IntName         .... CAMVER10-S5
 Hartree-Fock type      HFTyp           .... UHF
 Total Charge           Charge          ....    0
 Multiplicity           Mult            ....    3
 Number of Electrons    NEL             ....  206
 Basis Dimension        Dim             ....  855
 Nuclear Repulsion      ENuc            ....   3072.7965470443 Eh

Convergence Acceleration:
 AO-DIIS                CNVDIIS         .... on
   Start iteration      DIISMaxIt       ....    12
   Startup error        DIISStart       ....  0.200000
   # of expansion vecs  DIISMaxEq       ....     5
   Bias factor          DIISBfac        ....   1.050
   Max. coefficient     DIISMaxC        ....  10.000
 MO-DIIS                CNVKDIIS        .... off
 Trust-Rad. Augm. Hess. CNVTRAH         .... auto
   Auto Start mean grad. ratio tolernc. ....  1.125000
   Auto Start start iteration           ....    50
   Auto Start num. interpolation iter.  ....    10
   Max. Number of Micro iterations      ....    24
   Max. Number of Macro iterations      .... Maxiter - #DIIS iter
   Number of Davidson start vectors     ....     2
   Converg. threshold    (grad. norm)   ....   1.000e-05
   Grad. Scal. Fac. for Micro threshold ....   0.100
   Minimum threshold for Micro iter.    ....   1.000e-02
   NR start threshold (gradient norm)   ....   1.000e-04
   Initial trust radius                 ....   0.400
   Minimum AH scaling param. (alpha)    ....   1.000
   Maximum AH scaling param. (alpha)    .... 1000.000
   Quad. conv. algorithm                .... NR
   White noise on init. David. guess    .... on
   Maximum white noise                  ....   0.010
   Pseudo random numbers                .... off
   Inactive MOs                         .... canonical
   Orbital update algorithm             .... Taylor
   Preconditioner                       .... Diag
   Full preconditioner red. dimension   ....   250
 SOSCF                  CNVSOSCF        .... on
   Start iteration      SOSCFMaxIt      ....   150
   Startup grad/error   SOSCFStart      ....  0.003300
   Hessian update       SOSCFHessUp     .... L-BFGS
 Level Shifting         CNVShift        .... on
   Level shift para.    LevelShift      ....    0.2500
   Turn off err/grad.   ShiftErr        ....    0.0010
 Zerner damping         CNVZerner       .... off
 Static damping         CNVDamp         .... on
   Fraction old density DampFac         ....    0.7000
   Max. Damping (<1)    DampMax         ....    0.9800
   Min. Damping (>=0)   DampMin         ....    0.0000
   Turn off err/grad.   DampErr         ....    0.1000

SCF Procedure:
 Maximum # iterations   MaxIter         ....   125
 SCF integral mode      SCFMode         .... Direct
   Integral package                     .... SHARK and LIBINT hybrid scheme
 Reset frequency        DirectResetFreq ....    20
 Integral Threshold     Thresh          ....  2.500e-11 Eh
 Primitive CutOff       TCut            ....  2.500e-12 Eh

Convergence Tolerance:
 Convergence Check Mode ConvCheckMode   .... Total+1el-Energy
 Convergence forced     ConvForced      .... 0
 Energy Change          TolE            ....  1.000e-08 Eh
 1-El. energy change                    ....  1.000e-05 Eh
 Orbital Gradient       TolG            ....  1.000e-05
 Orbital Rotation angle TolX            ....  1.000e-05
 DIIS Error             TolErr          ....  5.000e-07

------------------------------
INITIAL GUESS: MODEL POTENTIAL
------------------------------
Loading Hartree-Fock densities                     ... done
Calculating cut-offs                               ... done
Initializing the effective Hamiltonian             ... done
Setting up the integral package (SHARK)            ... done
done (   0.4 sec)
Making the grid                                    ... done (   0.3 sec)
Mapping shells                                     ... done
Starting the XC term evaluation                    ... done (   0.2 sec)
  promolecular density results
     # of electrons  =    205.991962204
     EX              =   -221.537958001
     EC              =     -7.481027565
     EX+EC           =   -229.018985566
Transforming the Hamiltonian                       ... done (   0.1 sec)
done (   0.2 sec)
Back transforming the eigenvectors                 ... done (   0.1 sec)
done
                      ------------------
                      INITIAL GUESS DONE (   1.4 sec)
                      ------------------
             **** ENERGY FILE WAS UPDATED (CAMVER10-S5.en.tmp) ****
Finished Guess after   1.9 sec
Maximum memory used throughout the entire GUESS-calculation: 89.5 MB


           ************************************************************
           *        Program running with 16 parallel MPI-processes    *
           *              working on a common directory               *
           ************************************************************

-------------------------------------------------------------------------------------------
                                      ORCA LEAN-SCF
                              memory conserving SCF solver
-------------------------------------------------------------------------------------------

----------------------------------------D-I-I-S--------------------------------------------
Iteration    Energy (Eh)           Delta-E    RMSDP     MaxDP     DIISErr   Damp  Time(sec)
-------------------------------------------------------------------------------------------
               ***  Starting incremental Fock matrix formation  ***
    1    -2962.5030942697517276     0.00e+00  5.84e-04  7.45e-02  1.84e-01  0.700  22.5
    2    -2963.2100294601336827    -7.07e-01  4.96e-04  6.00e-02  9.43e-02  0.700  13.0
                               ***Turning on AO-DIIS***
    3    -2963.5228167708141882    -3.13e-01  2.54e-04  3.89e-02  3.75e-02  0.700  11.8
    4    -2963.7007710987577411    -1.78e-01  4.67e-04  8.53e-02  2.15e-02  0.000  11.2
    5    -2964.0796727611627830    -3.79e-01  1.09e-04  8.13e-03  8.36e-03  0.000  11.6
    6    -2964.0817093852260768    -2.04e-03  6.77e-05  9.34e-03  1.02e-02  0.000  10.5
    7    -2964.0823574099499638    -6.48e-04  3.53e-05  4.19e-03  7.85e-03  0.000   9.8
                              *** Initializing SOSCF ***
---------------------------------------S-O-S-C-F--------------------------------------
Iteration    Energy (Eh)           Delta-E    RMSDP     MaxDP     MaxGrad    Time(sec)
--------------------------------------------------------------------------------------
    8    -2964.0827856117052761    -4.28e-04  2.92e-05  3.26e-03  2.90e-03    10.4
               *** Restarting incremental Fock matrix formation ***
    9    -2964.0829911988416825    -2.06e-04  5.38e-05  4.52e-03  2.31e-03    22.2
   10    -2964.0832099355761784    -2.19e-04  9.72e-05  9.60e-03  1.53e-03    15.6
   11    -2964.0833596165234667    -1.50e-04  5.84e-05  7.02e-03  1.70e-03    16.2
   12    -2964.0831065899706118     2.53e-04  5.69e-05  6.40e-03  5.60e-03    15.9
   13    -2964.0833906399443549    -2.84e-04  7.08e-06  8.09e-04  2.18e-04    15.9
   14    -2964.0833881241264862     2.52e-06  4.78e-06  4.26e-04  2.15e-04    13.2
   15    -2964.0833972331970472    -9.11e-06  1.01e-06  8.31e-05  6.94e-05    12.7
   16    -2964.0833973573894582    -1.24e-07  9.63e-07  1.06e-04  4.95e-05     9.9
   17    -2964.0833975544924215    -1.97e-07  9.27e-07  9.57e-05  2.96e-05     9.7
   18    -2964.0833974974116245     5.71e-08  4.63e-07  3.00e-05  9.98e-06     9.8
   19    -2964.0833975372056557    -3.98e-08  3.27e-07  3.23e-05  5.91e-06     8.5
   20    -2964.0833975625259882    -2.53e-08  4.60e-07  4.94e-05  1.58e-06     7.4
                  *** Gradient check signals convergence ***

               *****************************************************
               *                     SUCCESS                       *
               *           SCF CONVERGED AFTER  20 CYCLES          *
               *****************************************************

 done (   31.131 sec)
Old exchange energy                            :    -56.687585084 Eh
New exchange energy                            :    -56.687584884 Eh
Exchange energy change after final integration :      0.000000200 Eh
Total energy after final integration           :  -2964.083397362 Eh
             **** ENERGY FILE WAS UPDATED (CAMVER10-S5.en.tmp) ****

----------------
TOTAL SCF ENERGY
----------------

[...]
150:   3066.53   0.019583   98.97  0.001993  (-0.001371  0.005220 -0.044314)
151:   3084.36   0.007803   39.43  0.000789  (-0.010167 -0.024892 -0.008154)
152:   3084.46   0.000175    0.88  0.000018  ( 0.001546  0.003729  0.001189)
153:   3095.90   0.000061    0.31  0.000006  (-0.001763  0.000202  0.001743)
154:   3096.02   0.005460   27.59  0.000550  (-0.016473  0.002171  0.016560)
155:   3130.70   0.000002    0.01  0.000000  ( 0.000147  0.000408  0.000059)
156:   3130.79   0.005292   26.74  0.000527  (-0.007827 -0.021313 -0.003460)
157:   3133.34   0.000090    0.45  0.000009  ( 0.001374  0.002499  0.000886)
158:   3133.41   0.002898   14.65  0.000289  ( 0.007940  0.014071  0.005255)
159:   3133.66   0.000222    1.12  0.000022  (-0.001623 -0.004391 -0.000388)
160:   3133.76   0.009144   46.21  0.000911  (-0.010206 -0.028312 -0.002211)
161:   3134.56   0.003702   18.71  0.000369  (-0.009042 -0.012619 -0.011296)
162:   3134.73   0.000010    0.05  0.000001  (-0.000469 -0.000626 -0.000607)
163:   3149.81   0.000674    3.41  0.000067  (-0.002521  0.001413 -0.007643)
164:   3149.87   0.001087    5.49  0.000108  ( 0.003169 -0.001747  0.009727)
165:   3151.22   0.000078    0.39  0.000008  ( 0.001577 -0.001195 -0.001952)
166:   3151.24   0.000540    2.73  0.000053  ( 0.004053 -0.003122 -0.005222)
167:   3153.20   0.000869    4.39  0.000086  ( 0.001146 -0.005041  0.007700)
168:   3153.26   0.000670    3.39  0.000066  ( 0.000937 -0.004404  0.006783)
169:   3154.65   0.000104    0.53  0.000010  ( 0.002479 -0.000040 -0.002032)
170:   3154.69   0.002074   10.48  0.000205  ( 0.011188 -0.000273 -0.008942)

* The epsilon (eps) is given for a Dirac delta lineshape.
** The dipole moment derivative (T) already includes vibrational overlap.

The first frequency considered to be a vibration is 6
The total number of vibrations considered is 165


--------------------------
THERMOCHEMISTRY AT 298.15K
--------------------------

Temperature         ...   298.15 K
Pressure            ...     1.00 atm
Total Mass          ...   382.35 AMU
Quasi RRHO          ...     True
Cut-Off Frequency   ...     1.00 cm^-1

Throughout the following assumptions are being made:
  (1) The electronic state is orbitally nondegenerate
      but the spin degeneracy is treated
  (2) There are no thermally accessible electronically excited states
  (3) Hindered rotations indicated by low frequency modes are not
      treated as such but are treated as vibrations and this may
      cause some error
  (4) All equations used are the standard statistical mechanics
      equations for an ideal gas
  (5) All vibrations are strictly harmonic

freq.      26.89  E(vib)   ...       0.55 
freq.      38.46  E(vib)   ...       0.54 
freq.      54.02  E(vib)   ...       0.52 
freq.      72.46  E(vib)   ...       0.49 
freq.      77.16  E(vib)   ...       0.49 
freq.      99.71  E(vib)   ...       0.46 
freq.     107.57  E(vib)   ...       0.45 
freq.     123.32  E(vib)   ...       0.43 
freq.     130.32  E(vib)   ...       0.43 
freq.     144.12  E(vib)   ...       0.41 
freq.     157.66  E(vib)   ...       0.40 
freq.     160.87  E(vib)   ...       0.39 
freq.     162.43  E(vib)   ...       0.39 
freq.     170.10  E(vib)   ...       0.38 
freq.     178.56  E(vib)   ...       0.37 
freq.     180.93  E(vib)   ...       0.37 
freq.     182.37  E(vib)   ...       0.37 
freq.     183.06  E(vib)   ...       0.37 
freq.     190.08  E(vib)   ...       0.36 
freq.     192.09  E(vib)   ...       0.36 
freq.     192.26  E(vib)   ...       0.36 
freq.     200.29  E(vib)   ...       0.35 
freq.     207.91  E(vib)   ...       0.34 
freq.     209.62  E(vib)   ...       0.34 
freq.     211.25  E(vib)   ...       0.34 
freq.     218.52  E(vib)   ...       0.33 
freq.     219.14  E(vib)   ...       0.33 
freq.     226.94  E(vib)   ...       0.33 
freq.     237.32  E(vib)   ...       0.32 
freq.     245.30  E(vib)   ...       0.31 
freq.     248.47  E(vib)   ...       0.31 
freq.     249.24  E(vib)   ...       0.31 
freq.     255.39  E(vib)   ...       0.30 
freq.     261.20  E(vib)   ...       0.30 
freq.     261.96  E(vib)   ...       0.29 
freq.     298.06  E(vib)   ...       0.27 
freq.     299.08  E(vib)   ...       0.26 
freq.     311.21  E(vib)   ...       0.25 
freq.     311.57  E(vib)   ...       0.25 
freq.     312.36  E(vib)   ...       0.25 
freq.     327.30  E(vib)   ...       0.24 
freq.     342.00  E(vib)   ...       0.23 
freq.     385.73  E(vib)   ...       0.20 
freq.     408.28  E(vib)   ...       0.19 
freq.     441.02  E(vib)   ...       0.17 
freq.     447.91  E(vib)   ...       0.17 
freq.     453.17  E(vib)   ...       0.16 
freq.     572.19  E(vib)   ...       0.11 
freq.     582.17  E(vib)   ...       0.11 
freq.     589.44  E(vib)   ...       0.10 
freq.     599.14  E(vib)   ...       0.10 
freq.     622.80  E(vib)   ...       0.09 
freq.     625.78  E(vib)   ...       0.09 
freq.     639.74  E(vib)   ...       0.09 
freq.     647.82  E(vib)   ...       0.09 
freq.     700.11  E(vib)   ...       0.07 
freq.     704.36  E(vib)   ...       0.07 
freq.     705.80  E(vib)   ...       0.07 
freq.     707.15  E(vib)   ...       0.07 
freq.     726.82  E(vib)   ...       0.06 
freq.     729.30  E(vib)   ...       0.06 
freq.     730.09  E(vib)   ...       0.06 
freq.     733.49  E(vib)   ...       0.06 
freq.     782.82  E(vib)   ...       0.05 
freq.     787.91  E(vib)   ...       0.05 
freq.     795.84  E(vib)   ...       0.05 
freq.     797.38  E(vib)   ...       0.05 
freq.     826.71  E(vib)   ...       0.04 
freq.     830.60  E(vib)   ...       0.04 
freq.     840.12  E(vib)   ...       0.04 
freq.     840.15  E(vib)   ...       0.04 
freq.     858.42  E(vib)   ...       0.04 
freq.     862.32  E(vib)   ...       0.04 
freq.     894.49  E(vib)   ...       0.03 
freq.     897.40  E(vib)   ...       0.03 
freq.     912.55  E(vib)   ...       0.03 
freq.     917.87  E(vib)   ...       0.03 
freq.     937.72  E(vib)   ...       0.03 
freq.     942.11  E(vib)   ...       0.03 
freq.     946.31  E(vib)   ...       0.03 
freq.     948.98  E(vib)   ...       0.03 
freq.     950.40  E(vib)   ...       0.03 
freq.     958.99  E(vib)   ...       0.03 
freq.    1015.18  E(vib)   ...       0.02 
freq.    1016.70  E(vib)   ...       0.02 
freq.    1082.02  E(vib)   ...       0.02 
freq.    1083.54  E(vib)   ...       0.02 
freq.    1144.18  E(vib)   ...       0.01 
freq.    1146.42  E(vib)   ...       0.01 
freq.    1167.85  E(vib)   ...       0.01 
freq.    1169.30  E(vib)   ...       0.01 
freq.    1255.15  E(vib)   ...       0.01 
freq.    1255.90  E(vib)   ...       0.01 
freq.    1289.08  E(vib)   ...       0.01 
freq.    1289.56  E(vib)   ...       0.01 
freq.    1295.06  E(vib)   ...       0.01 
freq.    1295.89  E(vib)   ...       0.01 
freq.    1299.56  E(vib)   ...       0.01 
freq.    1301.93  E(vib)   ...       0.01 
freq.    1309.73  E(vib)   ...       0.01 
freq.    1310.69  E(vib)   ...       0.01 
freq.    1316.09  E(vib)   ...       0.01 
freq.    1316.79  E(vib)   ...       0.01 
freq.    1433.76  E(vib)   ...       0.00 
freq.    1434.47  E(vib)   ...       0.00 
freq.    1437.53  E(vib)   ...       0.00 
freq.    1439.05  E(vib)   ...       0.00 
freq.    1439.43  E(vib)   ...       0.00 
freq.    1440.45  E(vib)   ...       0.00 
freq.    1444.61  E(vib)   ...       0.00 
freq.    1447.32  E(vib)   ...       0.00 
freq.    1449.11  E(vib)   ...       0.00 
freq.    1450.73  E(vib)   ...       0.00 
freq.    1451.24  E(vib)   ...       0.00 
freq.    1451.39  E(vib)   ...       0.00 
freq.    1455.02  E(vib)   ...       0.00 
freq.    1455.47  E(vib)   ...       0.00 
freq.    1456.57  E(vib)   ...       0.00 
freq.    1457.12  E(vib)   ...       0.00 
freq.    1458.29  E(vib)   ...       0.00 
freq.    1460.08  E(vib)   ...       0.00 
freq.    1461.42  E(vib)   ...       0.00 
freq.    1464.61  E(vib)   ...       0.00 
freq.    1469.86  E(vib)   ...       0.00 
freq.    1471.22  E(vib)   ...       0.00 
freq.    1473.26  E(vib)   ...       0.00 
freq.    1474.86  E(vib)   ...       0.00 
freq.    2986.77  E(vib)   ...       0.00 
freq.    2987.29  E(vib)   ...       0.00 
freq.    3037.08  E(vib)   ...       0.00 
freq.    3037.20  E(vib)   ...       0.00 
freq.    3041.57  E(vib)   ...       0.00 
freq.    3041.71  E(vib)   ...       0.00 
freq.    3043.74  E(vib)   ...       0.00 
freq.    3044.07  E(vib)   ...       0.00 
freq.    3045.80  E(vib)   ...       0.00 
freq.    3045.92  E(vib)   ...       0.00 
freq.    3047.48  E(vib)   ...       0.00 
freq.    3047.49  E(vib)   ...       0.00 
freq.    3048.08  E(vib)   ...       0.00 
freq.    3048.22  E(vib)   ...       0.00 
freq.    3048.34  E(vib)   ...       0.00 
freq.    3048.87  E(vib)   ...       0.00 
freq.    3065.94  E(vib)   ...       0.00 
freq.    3066.53  E(vib)   ...       0.00 
freq.    3084.36  E(vib)   ...       0.00 
freq.    3084.46  E(vib)   ...       0.00 
freq.    3095.90  E(vib)   ...       0.00 
freq.    3096.02  E(vib)   ...       0.00 
freq.    3130.70  E(vib)   ...       0.00 
freq.    3130.79  E(vib)   ...       0.00 
freq.    3133.34  E(vib)   ...       0.00 
freq.    3133.41  E(vib)   ...       0.00 
freq.    3133.66  E(vib)   ...       0.00 
freq.    3133.76  E(vib)   ...       0.00 
freq.    3134.56  E(vib)   ...       0.00 
freq.    3134.73  E(vib)   ...       0.00 
freq.    3149.81  E(vib)   ...       0.00 
freq.    3149.87  E(vib)   ...       0.00 
freq.    3151.22  E(vib)   ...       0.00 
freq.    3151.24  E(vib)   ...       0.00 
freq.    3153.20  E(vib)   ...       0.00 
freq.    3153.26  E(vib)   ...       0.00 
freq.    3154.65  E(vib)   ...       0.00 
freq.    3154.69  E(vib)   ...       0.00 

------------
INNER ENERGY
------------

The inner energy is: U= E(el) + E(ZPE) + E(vib) + E(rot) + E(trans)
    E(el)   - is the total energy from the electronic structure calculation
              = E(kin-el) + E(nuc-el) + E(el-el) + E(nuc-nuc)
    E(ZPE)  - the the zero temperature vibrational energy from the frequency calculation
    E(vib)  - the the finite temperature correction to E(ZPE) due to population
              of excited vibrational states
    E(rot)  - is the rotational thermal energy
    E(trans)- is the translational thermal energy

Summary of contributions to the inner energy U:
Electronic energy                ...  -2965.14062921 Eh
Zero point energy                ...      0.49020056 Eh     307.60 kcal/mol
Thermal vibrational correction   ...      0.02938673 Eh      18.44 kcal/mol
Thermal rotational correction    ...      0.00141627 Eh       0.89 kcal/mol
Thermal translational correction ...      0.00141627 Eh       0.89 kcal/mol
-----------------------------------------------------------------------
Total thermal energy                  -2964.61820938 Eh


Summary of corrections to the electronic energy:
(perhaps to be used in another calculation)
Total thermal correction                  0.03221927 Eh      20.22 kcal/mol
Non-thermal (ZPE) correction              0.49020056 Eh     307.60 kcal/mol
-----------------------------------------------------------------------
Total correction                          0.52241984 Eh     327.82 kcal/mol


--------
ENTHALPY
--------

The enthalpy is H = U + kB*T
                kB is Boltzmann's constant
Total thermal energy              ...  -2964.61820938 Eh 
Thermal Enthalpy correction       ...      0.00094421 Eh       0.59 kcal/mol
-----------------------------------------------------------------------
Total Enthalpy                    ...  -2964.61726517 Eh


Note: Only C1 symmetry has been detected, increase convergence thresholds 
      if your molecule has a higher symmetry. Symmetry factor of 1.0 is   
      used for the rotational entropy correction. 
 

Note: Rotational entropy computed according to Herzberg 
Infrared and Raman Spectra, Chapter V,1, Van Nostrand Reinhold, 1945 
Point Group:  C1, Symmetry Number:   1  
Rotational constants in cm-1:     0.010080     0.008398     0.005962 

Vibrational entropy computed according to the QRRHO of S. Grimme
Chem.Eur.J. 2012 18 9955 using a reference frequency of 100.0 cm-1


-------
ENTROPY
-------

The entropy contributions are T*S = T*(S(el)+S(vib)+S(rot)+S(trans))
     S(el)   - electronic entropy
     S(vib)  - vibrational entropy
     S(rot)  - rotational entropy
     S(trans)- translational entropy
The entropies will be listed as multiplied by the temperature to get
units of energy

Electronic entropy                ...      0.00103729 Eh      0.65 kcal/mol
Vibrational entropy               ...      0.05179990 Eh     32.50 kcal/mol
Rotational entropy                ...      0.01635577 Eh     10.26 kcal/mol
Translational entropy             ...      0.02077071 Eh     13.03 kcal/mol
-----------------------------------------------------------------------
Final entropy term                ...      0.08996368 Eh     56.45 kcal/mol

In case the symmetry of your molecule has not been determined correctly
or in case you have a reason to use a different symmetry number we print 
out the resulting rotational entropy values for sn=1,12:

 non-linear molecules -----------------------------------
|  sn= 1 | S(rot)=       0.01635577 Eh     10.26 kcal/mol|
|  sn= 2 | S(rot)=       0.01570132 Eh      9.85 kcal/mol|
|  sn= 3 | S(rot)=       0.01531848 Eh      9.61 kcal/mol|
|  sn= 4 | S(rot)=       0.01504686 Eh      9.44 kcal/mol|
|  sn= 5 | S(rot)=       0.01483617 Eh      9.31 kcal/mol|
|  sn= 6 | S(rot)=       0.01466403 Eh      9.20 kcal/mol|
|  sn= 7 | S(rot)=       0.01451848 Eh      9.11 kcal/mol|
|  sn= 8 | S(rot)=       0.01439240 Eh      9.03 kcal/mol|
|  sn= 9 | S(rot)=       0.01428120 Eh      8.96 kcal/mol|
|  sn=10 | S(rot)=       0.01418172 Eh      8.90 kcal/mol|
|  sn=11 | S(rot)=       0.01409173 Eh      8.84 kcal/mol|
|  sn=12 | S(rot)=       0.01400957 Eh      8.79 kcal/mol|
 linear molecules ---------------------------------------
|  Dinfh | S(rot)=       0.01016217 Eh      6.38 kcal/mol|
|  Cinfv | S(rot)=       0.01081663 Eh      6.79 kcal/mol|
 --------------------------------------------------------


-------------------
GIBBS FREE ENERGY
-------------------

The Gibbs free energy is G = H - T*S

Total enthalpy                    ...  -2964.61726517 Eh 
Total entropy correction          ...     -0.08996368 Eh    -56.45 kcal/mol
-----------------------------------------------------------------------
Final Gibbs free energy         ...  -2964.70722884 Eh

For completeness - the Gibbs free energy minus the electronic energy
G-E(el)                           ...      0.43340037 Eh    271.96 kcal/mol


Maximum memory used throughout the entire PROP-calculation: 1341.4 MB

--------------------------------
SUGGESTED CITATIONS FOR THIS RUN
--------------------------------

Below you find a list of papers that are relevant to this ORCA run
We neither can nor want to force you to cite these papers, but we appreciate if you do
You receive ORCA, which is the product of decades of hard work by many enthusiastic individuals, for free
The only thing we kindly ask in return is that you cite our papers,
We deeply appreciate it, if you show your appreciation for ORCA by not just citing the generic ORCA reference.

Please note that relegating all ORCA citations to the supporting information does *not* help us.
SI sections are not indexed - citations you put there will not count into any citation statistics
But we need these citations in order to attract the funding resources that allow us to do what we are doing

Therefore, if you are a happy ORCA user, please consider citing a few of the papers listed below in the main body of your paper

In addition to the list printed below, the program has created the file CAMVER10-S5.bibtex that contains the list in bibtex format
You can import this file easily into all common literature databanks and citation aid programs


List of essential papers. We consider these as the minimum necessary citations

  1. Neese,F.
     Software update: the ORCA program system, version 5.0
     WIRES Comput. Molec. Sci., 2022 12(1)e1606
     doi.org/10.1002/wcms.1606

List of papers to cite with high priority. The work reported in these papers was absolutely
necessary for this run to complete.
Our perspective: the developers of density functionals and basis sets usually get cited in chemistry papers
Good! But without the algorithms to do something with them, the functionals or basis sets would not do anything.
Hence, in our opinion, the algorithm design and method developments papers are equally worthy of getting cited

  1. Neese,F.
     An improvement of the resolution of the identity approximation for the formation of the Coulomb matrix
     J. Comp. Chem., 2003 24(14)1740-1747
     doi.org/10.1002/jcc.10318
  2. Neese,F.; Wennmohs,F.; Hansen,A.; Becker,U.
     Efficient, approximate and parallel Hartree-Fock and hybrid DFT calculations. A 'chain-of-spheres' algorithm for the Hartree-Fock exchange
     Chem. Phys., 2009 356(1-3)98-109
     doi.org/10.1016/j.chemphys.2008.10.036
  3. Bykov,D.; Petrenko,T.; Izsak,R.; Kossmann,S.; Becker,U.; Valeev,E.; Neese,F.
     Efficient implementation of the analytic second derivatives of Hartree-Fock and hybrid DFT energies: a detailed analysis of different approximations
     Molec. Phys., 2015 113 1961-1977
     doi.org/10.1080/00268976.2015.1025114
  4. Helmich-Paris,B.; de Souza,B.; Neese,F.; Izsák,R.
     An improved chain of spheres for exchange algorithm
     J. Chem. Phys., 2021 155 104109
     doi.org/doi: 10.1063/5.0058766.
  5. Neese,F.
     The SHARK Integral Generation and Digestion System
     J. Comp. Chem., 2022  1-16
     doi.org/10.1002/jcc.26942

List of suggested additional citations. These are papers that are important in the 'surrounding' of 
of this run, or papers that preceded the highly important papers. If you like your results we are grateful for a citation.

  1. Izsak,R.; Neese,F.
     An overlap fitted chain of spheres exchange method
     J. Chem. Phys., 2011 135 144105
     doi.org/10.1063/1.3646921
  2. Izsak,R.; Hansen,A.; Neese,F.
     The resolution of identity and chain of spheres approximations for the LPNO-CCSD singles Fock term
     Molec. Phys., 2012 110 2413-2417
     doi.org/10.1080/00268976.2012.687466
  3. Neese,F.
     The ORCA program system
     WIRES Comput. Molec. Sci., 2012 2(1)73-78
     doi.org/10.1002/wcms.81
  4. Izsak,R.; Neese,F.; Klopper,W.
     Robust fitting techniques in the chain of spheres approximation to the Fock exchange: The role of the complementary space
     J. Chem. Phys., 2013 139 
     doi.org/10.1063/1.4819264
  5. Neese,F.
     Software update: the ORCA program system, version 4.0
     WIRES Comput. Molec. Sci., 2018 8(1)1-6
     doi.org/10.1002/wcms.1327
  6. Neese,F.; Wennmohs,F.; Becker,U.; Riplinger,C.
     The ORCA quantum chemistry program package
     J. Chem. Phys., 2020 152 Art. No. L224108
     doi.org/10.1063/5.0004608

List of optional additional citations

  1. Neese,F.
     Approximate second-order SCF convergence for spin unrestricted wavefunctions
     Chem. Phys. Lett., 2000 325(1-3)93-98
     doi.org/10.1016/s0009-2614(00)00662-x

Timings for individual modules:

Sum of individual times          ...    11989.476 sec (= 199.825 min)
Startup calculation              ...      153.530 sec (=   2.559 min)   1.3 %
SCF iterations                   ...     2827.015 sec (=  47.117 min)  23.6 %
Property integrals               ...     3611.605 sec (=  60.193 min)  30.1 %
SCF Response                     ...     3552.074 sec (=  59.201 min)  29.6 %
Property calculations            ...     1097.634 sec (=  18.294 min)   9.2 %
SCF Gradient evaluation          ...      746.885 sec (=  12.448 min)   6.2 %
Geometry relaxation              ...        0.733 sec (=   0.012 min)   0.0 %
                             ****ORCA TERMINATED NORMALLY****
TOTAL RUN TIME: 0 days 3 hours 20 minutes 13 seconds 629 msec
