
                                 *****************
                                 * O   R   C   A *
                                 *****************

                                            #,                                       
                                            ###                                      
                                            ####                                     
                                            #####                                    
                                            ######                                   
                                           ########,                                 
                                     ,,################,,,,,                         
                               ,,#################################,,                 
                          ,,##########################################,,             
                       ,#########################################, ''#####,          
                    ,#############################################,,   '####,        
                  ,##################################################,,,,####,       
                ,###########''''           ''''###############################       
              ,#####''   ,,,,##########,,,,          '''####'''          '####       
            ,##' ,,,,###########################,,,                        '##       
           ' ,,###''''                  '''############,,,                           
         ,,##''                                '''############,,,,        ,,,,,,###''
      ,#''                                            '''#######################'''  
     '                                                          ''''####''''         
             ,#######,   #######,   ,#######,      ##                                
            ,#'     '#,  ##    ##  ,#'     '#,    #''#        ,####,   ,####,        
            ##       ##  ##   ,#'  ##            #'  '#       #'       #'  '#        
            ##       ##  #######   ##           ,######,      #####,   #    #        
            '#,     ,#'  ##    ##  '#,     ,#' ,#      #,     #,   #   #,  ,#        
             '#######'   ##     ##  '#######'  #'      '#     '####' # '####'        



                #########################################################
                #                        -***-                          #
                #          Department of theory and spectroscopy        #
                #                                                       #
                #                      Frank Neese                      #
                #                                                       #
                #     Directorship, Architecture, Infrastructure        #
                #                    SHARK, DRIVERS                     #
                #        Core code/Algorithms in most modules           #
                #                                                       #
                #        Max Planck Institute fuer Kohlenforschung      #
                #                Kaiser Wilhelm Platz 1                 #
                #                 D-45470 Muelheim/Ruhr                 #
                #                      Germany                          #
                #                                                       #
                #                  All rights reserved                  #
                #                        -***-                          #
                #########################################################


                         Program Version 6.0.1  -  RELEASE   -


 With contributions from (in alphabetic order):
[Max-Planck-Institut fuer Kohlenforschung]                               
  Daniel Aravena         : Magnetic Suceptibility                        
  Michael Atanasov       : Ab Initio Ligand Field Theory (pilot matlab implementation)
  Alexander A. Auer      : GIAO ZORA, VPT2 properties, NMR spectrum      
  Ute Becker             : All parallelization in ORCA, NUMFREQ, NUMCALC 
  Giovanni Bistoni       : ED, misc. LED, open-shell LED, HFLD           
  Martin Brehm           : Molecular dynamics                            
  Dmytro Bykov           : pre 5.0 version of the SCF Hessian            
  Marcos Casanova-Páez   : Triplet and SCS-CIS(D). UHF-(DLPNO)-IP/EA/STEOM-CCSD. UHF-CVS-IP/STEOM-CCSD   
  Vijay G. Chilkuri      : MRCI spin determinant printing, contributions to CSF-ICE 
  Pauline Colinet        : FMM embedding                                 
  Dipayan Datta          : RHF DLPNO-CCSD density                        
  Achintya Kumar Dutta   : EOM-CC, STEOM-CC                              
  Nicolas Foglia         : Exact transition moments, OPA infrastructure, MCD improvements    
  Dmitry Ganyushin       : Spin-Orbit,Spin-Spin,Magnetic field MRCI      
  Miquel Garcia-Rates    : C-PCM and meta-GGA Hessian, CCSD/C-PCM, Gaussian charge scheme 
  Tiago L. C. Gouveia    : GS-ROHF, GS-ROCIS                             
  Yang Guo               : DLPNO-NEVPT2, F12-NEVPT2, CIM, IAO-localization        
  Andreas Hansen         : Spin unrestricted coupled pair/coupled cluster methods 
  Ingolf Harden          : AUTO-CI MPn and infrastructure                
  Benjamin Helmich-Paris : MC-RPA, TRAH-(SCF,CASSCF), AVAS, COSX integrals, SCF dyn. polar. 
  Lee Huntington         : MR-EOM, pCC                                   
  Robert Izsak           : Overlap fitted RIJCOSX, COSX-SCS-MP3, EOM     
  Riya Kayal             : Wick's Theorem for AUTO-CI, AUTO-CI UHF-CCSDT 
  Emily Kempfer          : AUTO-CI, RHF CISDT and CCSDT                  
  Christian Kollmar      : KDIIS, OOCD, Brueckner-CCSD(T), CCSD density, CASPT2, CASPT2-K, improved NEVPT2 
  Axel Koslowski         : Symmetry handling                             
  Simone Kossmann        : meta-GGA functionals, TD-DFT gradient, OOMP2, (MP2 Hessian; deprecated post 5.0) 
  Lucas Lang             : DCDCAS                                        
  Marvin Lechner         : AUTO-CI (C++ implementation), FIC-MRCC        
  Spencer Leger          : CASSCF response                               
  Dagmar Lenk            : GEPOL surface, SMD, ORCA-2-JSON               
  Dimitrios Liakos       : Extrapolation schemes; Compound Job, initial MDCI parallelization 
  Dimitrios Manganas     : Further ROCIS development; embedding schemes. LFT, Crystal Embedding 
  Dimitrios Pantazis     : SARC Basis sets                               
  Anastasios Papadopoulos: AUTO-CI, single reference methods and gradients 
  Taras Petrenko         : pre 6.0 DFT Hessian and TD-DFT gradient, (ASA, deprecated), ECA, 1-Electron XAS/XES, NRVS 
  Peter Pinski           : DLPNO-MP2, DLPNO-MP2 Gradient                 
  Christoph Reimann      : Effective Core Potentials                     
  Marius Retegan         : Local ZFS, SOC                                
  Christoph Riplinger    : Optimizer, TS searches, QM/MM, DLPNO-CCSD(T), (RO)-DLPNO pert. Triples 
  Michael Roemelt        : Original ROCIS implementation                 
  Masaaki Saitow         : Open-shell DLPNO-CCSD energy and density      
  Barbara Sandhoefer     : DKH picture change effects                    
  Kantharuban Sivalingam : CASSCF convergence/infrastructure, NEVPT2 and variants, FIC-MRCI 
  Bernardo de Souza      : ESD, SOC TD-DFT                               
  Georgi L. Stoychev     : AutoAux, RI-MP2 NMR, DLPNO-MP2 response, X2C  
  Van Anh Tran           : RI-MP2 g-tensors                              
  Willem Van den Heuvel  : Paramagnetic NMR                              
  Zikuan Wang            : NOTCH, Electric field optimization            
  Frank Wennmohs         : Technical directorship and infrastructure     
  Hang Xu                : AUTO-CI-Response properties                   
                                                                         
[FACCTs GmbH]                                                            
  Markus Bursch, Miquel Garcia-Rates, Christoph Riplinger, Bernardo de Souza, Georgi L. Stoychev 
                                                                 
  APM, Basis sets (HGBS, AHGBS, def-TZVP (Ac-Lr), def2-XVPD (La-Lu)), CI-OPT, improved COSX, DLPNO-Multilevel,           
  DOCKER, DRACO, updates on ESD, GOAT, IRC, LR-CPCM, MBIS, meta-GGA TD-DFT gradient, ML-optimized integration grids, 
  MM, NACMEs, nearIR, NEB, NEB-TS, NL-DFT gradient (VV10), 2- and 3-layer-ONIOM, interface openCOSMO-RS, QMMM,   
  Crystal-QMMM, SF, symmetry and pop. for TD-DFT, r2SCAN hybrids, SOLVATOR                                   
                                                                         
[Other institutions]                                                     
  V. Asgeirsson          : NEB                                           
  Christoph Bannwarth    : sTDA-DFT, sTD-DFT, PBEh-3c, B97-3c, D3        
  Sebastian Ehlert       : rSCAN, r2SCAN, r2SCAN-3c, D4, dhf basis sets  
  Marvin Friede          : D4 for Fr, Ra, Ac-Lr                          
  Lars Goerigk           : TD-DFT with DH, B97 family of functionals     
  Stefan Grimme          : VdW corrections, initial TS optimization, DFT functionals, gCP, sTDA/sTD-DF 
  Waldemar Hujo          : DFT-NL                                        
  H. Jonsson             : NEB                                           
  Holger Kruse           : gCP                                           
  Marcel Mueller         : wB97X-3c, vDZP basis set                      
  Hagen Neugebauer       : wr2SCAN                                       
  Tobias Risthaus        : range-separated hybrid DFT                    
  Lukas Wittmann         : regularized MP2, r2SCAN double-hybrids, wr2SCAN        
                                                                         
We gratefully acknowledge several colleagues who have allowed us to      
interface, adapt or use parts of their codes:                            
  Ed Valeev, F. Pavosevic, A. Kumar             : LibInt (2-el integral package), F12 methods 
  Garnet Chan, S. Sharma, J. Yang, R. Olivares  : DMRG                   
  Ulf Ekstrom                                   : XCFun DFT Library      
  Mihaly Kallay                                 : mrcc  (arbitrary order and MRCC methods)
  Frank Weinhold                                : gennbo (NPA and NBO analysis)           
  Simon Mueller                                 : openCOSMO-RS                            
  Christopher J. Cramer and Donald G. Truhlar   : smd solvation model                     
  S Lehtola, MJT Oliveira, MAL Marques          : LibXC Library                           
  Liviu Ungur et al                             : ANISO software                          


 Your calculation uses the libint2 library for the computation of 2-el integrals
 For citations please refer to: http://libint.valeyev.net

 Your ORCA version has been built with support for libXC version: 6.2.2
 For citations please refer to: https://libxc.gitlab.io

 This ORCA versions uses:
   CBLAS   interface :  Fast vector & matrix operations
   LAPACKE interface :  Fast linear algebra routines
   SCALAPACK package :  Parallel linear algebra routines
   Shared memory     :  Shared parallel matrices
   BLAS/LAPACK       :  OpenBLAS 0.3.27  USE64BITINT DYNAMIC_ARCH NO_AFFINITY Cooperlake SINGLE_THREADED
        Core in use  :  Cooperlake
   Copyright (c) 2011-2014, The OpenBLAS Project


NOTE: MaxCore=3600 MB was set to SCF,MP2,MDCI,CIPSI,MRCI and CIS
      => If you want to overwrite this, your respective input block should be placed after the MaxCore statement
Warning: RI is on but no J-basis has been assigned. Assigning Def2/J (nothing to worry about!)
================================================================================

----- Orbital basis set information -----
Your calculation utilizes the basis: def2-TZVP
   F. Weigend and R. Ahlrichs, Phys. Chem. Chem. Phys. 7, 3297 (2005).

----- AuxJ basis set information -----
Your calculation utilizes the auxiliary basis: def2/J
   F. Weigend, Phys. Chem. Chem. Phys. 8, 1057 (2006).

================================================================================
                                        WARNINGS
                       Please study these warnings very carefully!
================================================================================


WARNING: your system is open-shell and RHF/RKS was chosen
  ===> : WILL SWITCH to UHF/UKS


WARNING: Geometry Optimization
  ===> : Switching off AutoStart
         For restart on a previous wavefunction, please use MOREAD

================================================================================
                                       INPUT FILE
================================================================================
NAME = DAJFEZ-S3.inp
|  1> ! PBE0 def2-TZVP  Opt Freq DEFGRID3
|  2> 
|  3> %maxcore 3600
|  4> 
|  5> %pal
|  6>     nprocs 16
|  7> end
|  8> 
|  9> *xyz 0 3
| 10> Ti 0.0 0.0 0.0
| 11> P 0.9826 1.2802 1.9467
| 12> P 0.7825 2.1073 -1.1402
| 13> C 2.2913 0.5924 3.0201
| 14> C -0.1717 1.9824 3.1669
| 15> C 1.8264 2.8193 1.3337
| 16> C 1.0737 3.4011 0.1451
| 17> C -0.2768 3.034 -2.3103
| 18> C 2.3784 2.1086 -2.0151
| 19> Cl 2.0489 -1.1064 -0.3253
| 20> H 2.518 1.1671 3.6407
| 21> H 3.041 0.3294 2.4138
| 22> H 1.9062 0.0042 3.4463
| 23> H -0.6887 1.3751 3.5164
| 24> H 0.2395 2.3022 3.895
| 25> H -0.9673 2.4599 2.7048
| 26> H 1.8849 3.4534 2.0868
| 27> H 2.8104 2.5424 1.0551
| 28> H -0.392 2.4633 -3.1344
| 29> H -1.2758 3.0607 -2.0518
| 30> H 0.0363 3.833 -2.4596
| 31> H 2.2588 1.5604 -2.7616
| 32> H 2.6525 3.0641 -2.2778
| 33> H 2.7929 1.8333 -1.5597
| 34> H 0.2369 3.6195 0.4746
| 35> H 1.5405 4.1714 -0.2594
| 36> P -0.9826 -1.2802 -1.9467
| 37> P -0.7825 -2.1073 1.1402
| 38> Cl -2.0489 1.1064 0.3253
| 39> C -2.2913 -0.5924 -3.0201
| 40> C 0.1717 -1.9824 -3.1669
| 41> C -1.8264 -2.8193 -1.3337
| 42> C -1.0737 -3.4011 -0.1451
| 43> C 0.2768 -3.034 2.3103
| 44> C -2.3784 -2.1086 2.0151
| 45> H -2.518 -1.1671 -3.6407
| 46> H -3.041 -0.3294 -2.4138
| 47> H -1.9062 -0.0042 -3.4463
| 48> H 0.6887 -1.3751 -3.5164
| 49> H -0.2395 -2.3022 -3.895
| 50> H 0.9673 -2.4599 -2.7048
| 51> H -1.8849 -3.4534 -2.0868
| 52> H -2.8104 -2.5424 -1.0551
| 53> H -0.2369 -3.6195 -0.4746
| 54> H -1.5405 -4.1714 0.2594
| 55> H 0.392 -2.4633 3.1344
| 56> H 1.2758 -3.0607 2.0518
| 57> H -0.0363 -3.833 2.4596
| 58> H -2.2588 -1.5604 2.7616
| 59> H -2.6525 -3.0641 2.2778
| 60> H -2.7929 -1.8333 1.5597
| 61> *
| 62> 
| 63>                          ****END OF INPUT****
================================================================================

                       *****************************
                       * Geometry Optimization Run *
                       *****************************

Geometry optimization settings:
Update method            Update   .... BFGS
Choice of coordinates    CoordSys .... (2022) Redundant Internals
Initial Hessian          InHess   .... Almloef's Model
Max. no of cycles        MaxIter  .... 153

Convergence Tolerances:
Energy Change            TolE     ....  5.0000e-06 Eh
Max. Gradient            TolMAXG  ....  3.0000e-04 Eh/bohr
RMS Gradient             TolRMSG  ....  1.0000e-04 Eh/bohr
Max. Displacement        TolMAXD  ....  4.0000e-03 bohr
RMS Displacement         TolRMSD  ....  2.0000e-03 bohr
Strict Convergence                .... False

------------------------------------------------------------------------------
                        ORCA OPTIMIZATION COORDINATE SETUP
------------------------------------------------------------------------------

The optimization will be done in redundant internal coordinates (2022)
Making redundant internal coordinates   ...  (2022 redundants) done
Evaluating the initial hessian          ...  (Almloef) done
Evaluating the coordinates              ...  done
Calculating the B-matrix                .... done
Calculating the G-matrix                .... done
Diagonalizing the G-matrix              .... done
Small eigenvalue found = 8.624e-03
Small eigenvalue found = 1.812e-02
Small eigenvalue found = 2.806e-02
The first mode is                       ....  161
The number of degrees of freedom        ....  147

    -----------------------------------------------------------------
                    Redundant Internal Coordinates


    -----------------------------------------------------------------
         Definition                    Initial Value    Approx d2E/dq
    -----------------------------------------------------------------
      1. B(P   1,Ti  0)                  2.5286         0.324130   
      2. B(P   2,Ti  0)                  2.5205         0.333939   
      3. B(C   3,P   1)                  1.8270         0.421713   
      4. B(C   4,P   1)                  1.8205         0.431844   
      5. B(C   5,P   1)                  1.8592         0.374685   
      6. B(C   6,P   2)                  1.8468         0.392120   
      7. B(C   6,C   5)                  1.5224         0.384098   
      8. B(C   7,P   2)                  1.8303         0.416630   
      9. B(C   8,P   2)                  1.8200         0.432730   
     10. B(Cl  9,Ti  0)                  2.3512         0.415334   
     11. B(H  10,C   3)                  0.8757         0.791326   
     12. B(H  11,C   3)                  0.9994         0.502290   
     13. B(H  12,C   3)                  0.8221         0.963304   
     14. B(H  13,C   4)                  0.8708         0.805711   
     15. B(H  14,C   4)                  0.8953         0.736413   
     16. B(H  15,C   4)                  1.0366         0.438160   
     17. B(H  16,C   5)                  0.9862         0.527193   
     18. B(H  17,C   5)                  1.0595         0.402790   
     19. B(H  18,C   7)                  1.0090         0.484876   
     20. B(H  19,C   7)                  1.0322         0.445208   
     21. B(H  20,C   7)                  0.8710         0.804912   
     22. B(H  21,C   8)                  0.9339         0.639056   
     23. B(H  22,C   8)                  1.0282         0.451937   
     24. B(H  23,C   8)                  0.6745         1.656840   
     25. B(H  24,C   6)                  0.9255         0.659042   
     26. B(H  25,C   6)                  0.9874         0.525019   
     27. B(P  26,Ti  0)                  2.5286         0.324130   
     28. B(P  27,Ti  0)                  2.5205         0.333939   
     29. B(Cl 28,Ti  0)                  2.3512         0.415334   
     30. B(C  29,P  26)                  1.8270         0.421713   
     31. B(C  30,P  26)                  1.8205         0.431844   
     32. B(C  31,P  26)                  1.8592         0.374685   
     33. B(C  32,C  31)                  1.5224         0.384098   
     34. B(C  32,P  27)                  1.8468         0.392120   
     35. B(C  33,P  27)                  1.8303         0.416630   
     36. B(C  34,P  27)                  1.8200         0.432730   
     37. B(H  35,C  29)                  0.8757         0.791326   
     38. B(H  36,C  29)                  0.9994         0.502290   
     39. B(H  37,C  29)                  0.8221         0.963304   
     40. B(H  38,C  30)                  0.8708         0.805711   
     41. B(H  39,C  30)                  0.8953         0.736413   
     42. B(H  40,C  30)                  1.0366         0.438160   
     43. B(H  41,C  31)                  0.9862         0.527193   
     44. B(H  42,C  31)                  1.0595         0.402790   
     45. B(H  43,C  32)                  0.9255         0.659042   
     46. B(H  44,C  32)                  0.9874         0.525019   
     47. B(H  45,C  33)                  1.0090         0.484876   
     48. B(H  46,C  33)                  1.0322         0.445208   
     49. B(H  47,C  33)                  0.8710         0.804912   
     50. B(H  48,C  34)                  0.9339         0.639056   
     51. B(H  49,C  34)                  1.0282         0.451937   
     52. B(H  50,C  34)                  0.6745         1.656840   
     53. A(P   1,Ti  0,P   2)           78.7169         0.478116   
     54. A(Cl  9,Ti  0,P  26)           89.6490         0.490155   
     55. A(P   1,Ti  0,P  27)          101.2831         0.478116   
     56. A(P  27,Ti  0,Cl 28)           93.4570         0.492871   
     57. A(P   2,Ti  0,Cl  9)           93.4570         0.492871   
     58. A(P   2,Ti  0,P  26)          101.2831         0.478116   
     59. A(P   2,Ti  0,Cl 28)           86.5430         0.492871   
     60. A(P  26,Ti  0,P  27)           78.7169         0.478116   
     61. A(Cl  9,Ti  0,P  27)           86.5430         0.492871   
     62. A(P  26,Ti  0,Cl 28)           90.3510         0.490155   
     63. A(P   1,Ti  0,Cl 28)           89.6490         0.490155   
     64. A(P   1,Ti  0,Cl  9)           90.3510         0.490155   
     65. A(Ti  0,P   1,C   4)          117.7028         0.454082   
     66. A(Ti  0,P   1,C   5)          109.9770         0.442536   
     67. A(C   4,P   1,C   5)          100.9204         0.422946   
     68. A(C   3,P   1,C   5)          100.3850         0.421156   
     69. A(C   3,P   1,C   4)          101.8644         0.432004   
     70. A(Ti  0,P   1,C   3)          122.6877         0.452125   
     71. A(C   7,P   2,C   8)          101.5262         0.431223   
     72. A(C   6,P   2,C   8)          101.2912         0.426558   
     73. A(Ti  0,P   2,C   8)          119.3592         0.456725   
     74. A(Ti  0,P   2,C   7)          122.1962         0.453582   
     75. A(Ti  0,P   2,C   6)          108.6526         0.448613   
     76. A(C   6,P   2,C   7)          100.4558         0.423674   
     77. A(H  11,C   3,H  12)          118.5281         0.360921   
     78. A(H  10,C   3,H  12)          102.9093         0.390385   
     79. A(P   1,C   3,H  12)          103.7911         0.416875   
     80. A(H  10,C   3,H  11)          114.1074         0.349082   
     81. A(P   1,C   3,H  11)          106.2590         0.371943   
     82. A(P   1,C   3,H  10)          110.7781         0.402601   
     83. A(H  14,C   4,H  15)          123.4034         0.337093   
     84. A(H  13,C   4,H  15)           92.5503         0.342195   
     85. A(P   1,C   4,H  15)          111.4400         0.364807   
     86. A(H  13,C   4,H  14)          101.2685         0.373768   
     87. A(P   1,C   4,H  13)          112.1142         0.405579   
     88. A(P   1,C   4,H  14)          113.0576         0.399200   
     89. A(C   6,C   5,H  16)          112.3206         0.347141   
     90. A(P   1,C   5,H  16)          107.9028         0.367505   
     91. A(H  16,C   5,H  17)          108.2847         0.314677   
     92. A(C   6,C   5,H  17)          110.7170         0.331884   
     93. A(P   1,C   5,H  17)          106.9691         0.351045   
     94. A(P   1,C   5,C   6)          110.4496         0.388740   
     95. A(C   5,C   6,H  25)          112.5966         0.346899   
     96. A(H  24,C   6,H  25)          112.9064         0.341046   
     97. A(P   2,C   6,H  25)          109.6319         0.370123   
     98. A(C   5,C   6,H  24)          105.0257         0.360518   
     99. A(P   2,C   6,H  24)          105.6962         0.384968   
    100. A(P   2,C   6,C   5)          110.7068         0.391841   
    101. A(H  19,C   7,H  20)          111.5351         0.343054   
    102. A(H  18,C   7,H  19)           96.2385         0.315519   
    103. A(H  18,C   7,H  20)          114.8262         0.348010   
    104. A(P   2,C   7,H  20)          111.4674         0.402949   
    105. A(P   2,C   7,H  19)          114.4007         0.363567   
    106. A(P   2,C   7,H  18)          107.5683         0.368923   
    107. A(H  22,C   8,H  23)          112.8283         0.389168   
    108. A(H  21,C   8,H  23)          112.2593         0.413653   
    109. A(P   2,C   8,H  23)          102.3568         0.461864   
    110. A(P   2,C   8,H  22)          110.9318         0.366875   
    111. A(H  21,C   8,H  22)          112.0515         0.330947   
    112. A(P   2,C   8,H  21)          105.7566         0.389542   
    113. A(C  29,P  26,C  30)          101.8644         0.432004   
    114. A(Ti  0,P  26,C  30)          117.7028         0.454082   
    115. A(Ti  0,P  26,C  29)          122.6877         0.452125   
    116. A(C  30,P  26,C  31)          100.9204         0.422946   
    117. A(C  29,P  26,C  31)          100.3850         0.421156   
    118. A(Ti  0,P  26,C  31)          109.9770         0.442536   
    119. A(C  33,P  27,C  34)          101.5262         0.431223   
    120. A(C  32,P  27,C  34)          101.2912         0.426558   
    121. A(Ti  0,P  27,C  34)          119.3592         0.456725   
    122. A(C  32,P  27,C  33)          100.4558         0.423674   
    123. A(Ti  0,P  27,C  33)          122.1962         0.453582   
    124. A(Ti  0,P  27,C  32)          108.6526         0.448613   
    125. A(H  36,C  29,H  37)          118.5281         0.360921   
    126. A(H  35,C  29,H  37)          102.9093         0.390385   
    127. A(P  26,C  29,H  37)          103.7911         0.416875   
    128. A(H  35,C  29,H  36)          114.1074         0.349082   
    129. A(P  26,C  29,H  36)          106.2590         0.371943   
    130. A(P  26,C  29,H  35)          110.7781         0.402601   
    131. A(H  39,C  30,H  40)          123.4034         0.337093   
    132. A(H  38,C  30,H  40)           92.5503         0.342195   
    133. A(P  26,C  30,H  40)          111.4400         0.364807   
    134. A(H  38,C  30,H  39)          101.2685         0.373768   
    135. A(P  26,C  30,H  39)          113.0576         0.399200   
    136. A(P  26,C  30,H  38)          112.1142         0.405579   
    137. A(C  32,C  31,H  42)          110.7170         0.331884   
    138. A(P  26,C  31,H  42)          106.9691         0.351045   
    139. A(C  32,C  31,H  41)          112.3206         0.347141   
    140. A(P  26,C  31,H  41)          107.9028         0.367505   
    141. A(P  26,C  31,C  32)          110.4496         0.388740   
    142. A(H  41,C  31,H  42)          108.2847         0.314677   
    143. A(H  43,C  32,H  44)          112.9064         0.341046   
    144. A(C  31,C  32,H  44)          112.5966         0.346899   
    145. A(P  27,C  32,H  44)          109.6319         0.370123   
    146. A(C  31,C  32,H  43)          105.0257         0.360518   
    147. A(P  27,C  32,H  43)          105.6962         0.384968   
    148. A(P  27,C  32,C  31)          110.7068         0.391841   
    149. A(H  46,C  33,H  47)          111.5351         0.343054   
    150. A(H  45,C  33,H  47)          114.8262         0.348010   
    151. A(P  27,C  33,H  47)          111.4674         0.402949   
    152. A(H  45,C  33,H  46)           96.2385         0.315519   
    153. A(P  27,C  33,H  46)          114.4007         0.363567   
    154. A(P  27,C  33,H  45)          107.5683         0.368923   
    155. A(H  49,C  34,H  50)          112.8283         0.389168   
    156. A(H  48,C  34,H  50)          112.2593         0.413653   
    157. A(P  27,C  34,H  50)          102.3568         0.461864   
    158. A(H  48,C  34,H  49)          112.0515         0.330947   
    159. A(P  27,C  34,H  49)          110.9318         0.366875   
    160. A(P  27,C  34,H  48)          105.7566         0.389542   
    161. D(C   3,P   1,Ti  0,Cl  9)    -30.7350         0.001672   
    162. D(C   4,P   1,Ti  0,P  27)    -71.9855         0.001672   
    163. D(C   4,P   1,Ti  0,Cl 28)     21.4696         0.001672   
    164. D(C   4,P   1,Ti  0,Cl  9)   -158.5304         0.001672   
    165. D(C   5,P   1,Ti  0,P   2)     -6.7283         0.001672   
    166. D(C   3,P   1,Ti  0,P   2)   -124.1901         0.001672   
    167. D(C   4,P   1,Ti  0,P   2)    108.0145         0.001672   
    168. D(C   3,P   1,Ti  0,Cl 28)    149.2650         0.001672   
    169. D(C   3,P   1,Ti  0,P  27)     55.8099         0.001672   
    170. D(C   6,P   2,Ti  0,Cl 28)     73.4584         0.001682   
    171. D(C   7,P   2,Ti  0,Cl  9)    137.4258         0.001682   
    172. D(C   6,P   2,Ti  0,P  26)    163.1265         0.001682   
    173. D(C   7,P   2,Ti  0,P  26)     47.0938         0.001682   
    174. D(C   6,P   2,Ti  0,Cl  9)   -106.5416         0.001682   
    175. D(C   8,P   2,Ti  0,P   1)     98.4033         0.001682   
    176. D(C   7,P   2,Ti  0,Cl 28)    -42.5742         0.001682   
    177. D(C   6,P   2,Ti  0,P   1)    -16.8735         0.001682   
    178. D(C   7,P   2,Ti  0,P   1)   -132.9062         0.001682   
    179. D(H  11,C   3,P   1,C   5)    -66.7269         0.004106   
    180. D(H  11,C   3,P   1,Ti  0)     55.2982         0.004106   
    181. D(H  10,C   3,P   1,C   5)     57.7253         0.004106   
    182. D(H  11,C   3,P   1,C   4)   -170.3365         0.004106   
    183. D(H  12,C   3,P   1,Ti  0)    -70.4229         0.004106   
    184. D(H  10,C   3,P   1,C   4)    -45.8844         0.004106   
    185. D(H  10,C   3,P   1,Ti  0)    179.7503         0.004106   
    186. D(H  14,C   4,P   1,C   5)    -69.9175         0.004237   
    187. D(H  14,C   4,P   1,C   3)     33.2694         0.004237   
    188. D(H  13,C   4,P   1,C   3)    -80.4466         0.004237   
    189. D(H  13,C   4,P   1,C   5)    176.3665         0.004237   
    190. D(H  14,C   4,P   1,Ti  0)    170.4589         0.004237   
    191. D(H  13,C   4,P   1,Ti  0)     56.7429         0.004237   
    192. D(H  15,C   4,P   1,Ti  0)    -45.4482         0.004237   
    193. D(H  16,C   5,P   1,C   4)     33.3576         0.003543   
    194. D(H  16,C   5,P   1,C   3)    -71.0155         0.003543   
    195. D(H  16,C   5,P   1,Ti  0)    158.3807         0.003543   
    196. D(H  17,C   5,P   1,Ti  0)    -85.3056         0.003543   
    197. D(C   6,C   5,P   1,C   4)    -89.7639         0.003543   
    198. D(C   6,C   5,P   1,C   3)    165.8630         0.003543   
    199. D(C   6,C   5,P   1,Ti  0)     35.2592         0.003543   
    200. D(H  24,C   6,C   5,H  17)   -179.5688         0.011746   
    201. D(H  24,C   6,C   5,H  16)    -58.3794         0.011746   
    202. D(H  24,C   6,C   5,P   1)     62.1339         0.011746   
    203. D(P   2,C   6,C   5,H  17)     66.7951         0.011746   
    204. D(P   2,C   6,C   5,H  16)   -172.0155         0.011746   
    205. D(P   2,C   6,C   5,P   1)    -51.5022         0.011746   
    206. D(H  25,C   6,P   2,Ti  0)    169.3050         0.003743   
    207. D(H  24,C   6,P   2,C   8)    164.7587         0.003743   
    208. D(H  24,C   6,P   2,C   7)     60.6333         0.003743   
    209. D(H  24,C   6,P   2,Ti  0)    -68.7234         0.003743   
    210. D(C   5,C   6,P   2,C   8)    -82.0304         0.003743   
    211. D(C   5,C   6,P   2,Ti  0)     44.4875         0.003743   
    212. D(C   5,C   6,P   2,C   7)    173.8442         0.003743   
    213. D(H  19,C   7,P   2,C   8)    173.4278         0.004041   
    214. D(H  19,C   7,P   2,C   6)    -82.6365         0.004041   
    215. D(H  19,C   7,P   2,Ti  0)     37.3981         0.004041   
    216. D(H  18,C   7,P   2,C   8)     67.8356         0.004041   
    217. D(H  18,C   7,P   2,C   6)    171.7713         0.004041   
    218. D(H  20,C   7,P   2,Ti  0)    165.0973         0.004041   
    219. D(H  18,C   7,P   2,Ti  0)    -68.1941         0.004041   
    220. D(H  22,C   8,P   2,Ti  0)   -169.4001         0.004248   
    221. D(H  21,C   8,P   2,C   7)    -68.7231         0.004248   
    222. D(H  21,C   8,P   2,C   6)   -171.9957         0.004248   
    223. D(H  21,C   8,P   2,Ti  0)     68.8923         0.004248   
    224. D(H  23,C   8,P   2,Ti  0)    -48.8008         0.004248   
    225. D(H  22,C   8,P   2,C   7)     52.9845         0.004248   
    226. D(H  22,C   8,P   2,C   6)    -50.2881         0.004248   
    227. D(C  31,P  26,P   1,C   4)    -65.2572         0.001500   
    228. D(C  31,P  26,P   1,C   3)     62.5381         0.001500   
    229. D(C  30,P  26,P   1,C   5)     65.2572         0.001500   
    230. D(C  30,P  26,P   1,C   4)   -180.0000         0.001500   
    231. D(C  29,P  26,P   1,C   5)    -62.5381         0.001500   
    232. D(C  29,P  26,P   1,C   4)     52.2046         0.001500   
    233. D(C  29,P  26,P   1,C   3)    180.0000         0.001500   
    234. D(C  31,P  26,Ti  0,P   2)   -173.2717         0.001672   
    235. D(C  30,P  26,Ti  0,Cl 28)    158.5304         0.001672   
    236. D(C  30,P  26,Ti  0,P  27)   -108.0145         0.001672   
    237. D(C  30,P  26,Ti  0,Cl  9)    -21.4696         0.001672   
    238. D(C  30,P  26,P   1,C   3)    -52.2046         0.001500   
    239. D(C  30,P  26,Ti  0,P   2)     71.9855         0.001672   
    240. D(C  29,P  26,Ti  0,Cl 28)     30.7350         0.001672   
    241. D(C  29,P  26,Ti  0,P  27)    124.1901         0.001672   
    242. D(C  29,P  26,Ti  0,Cl  9)   -149.2650         0.001672   
    243. D(C  29,P  26,Ti  0,P   2)    -55.8099         0.001672   
    244. D(C  34,P  27,P   2,C   7)    -51.3094         0.001500   
    245. D(C  34,P  27,P   2,C   6)     64.7233         0.001500   
    246. D(C  33,P  27,P   2,C   8)     51.3094         0.001500   
    247. D(C  33,P  27,P   2,C   7)    180.0000         0.001500   
    248. D(C  33,P  27,P   2,C   6)    -63.9673         0.001500   
    249. D(C  32,P  27,P   2,C   7)     63.9673         0.001500   
    250. D(C  32,P  27,P   2,C   6)    180.0000         0.001500   
    251. D(C  34,P  27,Ti  0,P   1)     81.5967         0.001682   
    252. D(C  33,P  27,Ti  0,Cl 28)   -137.4258         0.001682   
    253. D(C  33,P  27,Ti  0,P  26)    132.9062         0.001682   
    254. D(C  32,P  27,P   2,C   8)    -64.7233         0.001500   
    255. D(C  33,P  27,Ti  0,Cl  9)     42.5742         0.001682   
    256. D(C  33,P  27,Ti  0,P   1)    -47.0938         0.001682   
    257. D(C  32,P  27,Ti  0,Cl 28)    106.5416         0.001682   
    258. D(C  32,P  27,Ti  0,P  26)     16.8735         0.001682   
    259. D(C  32,P  27,Ti  0,Cl  9)    -73.4584         0.001682   
    260. D(C  32,P  27,Ti  0,P   1)   -163.1265         0.001682   
    261. D(H  36,C  29,P  26,C  31)     66.7269         0.004106   
    262. D(H  36,C  29,P  26,C  30)    170.3365         0.004106   
    263. D(H  36,C  29,P  26,Ti  0)    -55.2982         0.004106   
    264. D(H  35,C  29,P  26,C  31)    -57.7253         0.004106   
    265. D(H  35,C  29,P  26,C  30)     45.8844         0.004106   
    266. D(H  37,C  29,P  26,Ti  0)     70.4229         0.004106   
    267. D(H  35,C  29,P  26,Ti  0)   -179.7503         0.004106   
    268. D(H  40,C  30,P  26,Ti  0)     45.4482         0.004237   
    269. D(H  39,C  30,P  26,C  31)     69.9175         0.004237   
    270. D(H  39,C  30,P  26,C  29)    -33.2694         0.004237   
    271. D(H  39,C  30,P  26,Ti  0)   -170.4589         0.004237   
    272. D(H  38,C  30,P  26,C  31)   -176.3665         0.004237   
    273. D(H  38,C  30,P  26,C  29)     80.4466         0.004237   
    274. D(H  38,C  30,P  26,Ti  0)    -56.7429         0.004237   
    275. D(H  42,C  31,P  26,Ti  0)     85.3056         0.003543   
    276. D(H  41,C  31,P  26,C  30)    -33.3576         0.003543   
    277. D(H  41,C  31,P  26,C  29)     71.0155         0.003543   
    278. D(H  41,C  31,P  26,Ti  0)   -158.3807         0.003543   
    279. D(C  32,C  31,P  26,C  30)     89.7639         0.003543   
    280. D(C  32,C  31,P  26,C  29)   -165.8630         0.003543   
    281. D(C  32,C  31,P  26,Ti  0)    -35.2592         0.003543   
    282. D(H  43,C  32,P  27,C  34)   -164.7587         0.003743   
    283. D(H  43,C  32,P  27,C  33)    -60.6333         0.003743   
    284. D(H  43,C  32,P  27,Ti  0)     68.7234         0.003743   
    285. D(C  31,C  32,P  27,C  34)     82.0304         0.003743   
    286. D(C  31,C  32,P  27,C  33)   -173.8442         0.003743   
    287. D(C  31,C  32,P  27,Ti  0)    -44.4875         0.003743   
    288. D(H  43,C  32,C  31,H  42)    179.5688         0.011746   
    289. D(H  43,C  32,C  31,H  41)     58.3794         0.011746   
    290. D(H  43,C  32,C  31,P  26)    -62.1339         0.011746   
    291. D(P  27,C  32,C  31,H  42)    -66.7951         0.011746   
    292. D(P  27,C  32,C  31,H  41)    172.0155         0.011746   
    293. D(P  27,C  32,C  31,P  26)     51.5022         0.011746   
    294. D(H  44,C  32,P  27,Ti  0)   -169.3050         0.003743   
    295. D(H  47,C  33,P  27,Ti  0)   -165.0973         0.004041   
    296. D(H  46,C  33,P  27,C  34)   -173.4278         0.004041   
    297. D(H  46,C  33,P  27,C  32)     82.6365         0.004041   
    298. D(H  46,C  33,P  27,Ti  0)    -37.3981         0.004041   
    299. D(H  45,C  33,P  27,C  34)    -67.8356         0.004041   
    300. D(H  45,C  33,P  27,C  32)   -171.7713         0.004041   
    301. D(H  45,C  33,P  27,Ti  0)     68.1941         0.004041   
    302. D(H  50,C  34,P  27,Ti  0)     48.8008         0.004248   
    303. D(H  49,C  34,P  27,C  33)    -52.9845         0.004248   
    304. D(H  49,C  34,P  27,C  32)     50.2881         0.004248   
    305. D(H  49,C  34,P  27,Ti  0)    169.4001         0.004248   
    306. D(H  48,C  34,P  27,C  33)     68.7231         0.004248   
    307. D(H  48,C  34,P  27,C  32)    171.9957         0.004248   
    308. D(H  48,C  34,P  27,Ti  0)    -68.8923         0.004248   
    -----------------------------------------------------------------

Number of atoms                         .... 51
Number of degrees of freedom            .... 308


         *************************************************************
         *                GEOMETRY OPTIMIZATION CYCLE   1            *
         *************************************************************
---------------------------------
CARTESIAN COORDINATES (ANGSTROEM)
---------------------------------
  Ti     0.000000    0.000000    0.000000
  P      0.982600    1.280200    1.946700
  P      0.782500    2.107300   -1.140200
  C      2.291300    0.592400    3.020100
  C     -0.171700    1.982400    3.166900
  C      1.826400    2.819300    1.333700
  C      1.073700    3.401100    0.145100
  C     -0.276800    3.034000   -2.310300
  C      2.378400    2.108600   -2.015100
  Cl     2.048900   -1.106400   -0.325300
  H      2.518000    1.167100    3.640700
  H      3.041000    0.329400    2.413800
  H      1.906200    0.004200    3.446300
  H     -0.688700    1.375100    3.516400
  H      0.239500    2.302200    3.895000
  H     -0.967300    2.459900    2.704800
  H      1.884900    3.453400    2.086800
  H      2.810400    2.542400    1.055100
  H     -0.392000    2.463300   -3.134400
  H     -1.275800    3.060700   -2.051800
  H      0.036300    3.833000   -2.459600
  H      2.258800    1.560400   -2.761600
  H      2.652500    3.064100   -2.277800
  H      2.792900    1.833300   -1.559700
  H      0.236900    3.619500    0.474600
  H      1.540500    4.171400   -0.259400
  P     -0.982600   -1.280200   -1.946700
  P     -0.782500   -2.107300    1.140200
  Cl    -2.048900    1.106400    0.325300
  C     -2.291300   -0.592400   -3.020100
  C      0.171700   -1.982400   -3.166900
  C     -1.826400   -2.819300   -1.333700
  C     -1.073700   -3.401100   -0.145100
  C      0.276800   -3.034000    2.310300
  C     -2.378400   -2.108600    2.015100
  H     -2.518000   -1.167100   -3.640700
  H     -3.041000   -0.329400   -2.413800
  H     -1.906200   -0.004200   -3.446300
  H      0.688700   -1.375100   -3.516400
  H     -0.239500   -2.302200   -3.895000
  H      0.967300   -2.459900   -2.704800
  H     -1.884900   -3.453400   -2.086800
  H     -2.810400   -2.542400   -1.055100
  H     -0.236900   -3.619500   -0.474600
  H     -1.540500   -4.171400    0.259400
  H      0.392000   -2.463300    3.134400
  H      1.275800   -3.060700    2.051800
  H     -0.036300   -3.833000    2.459600
  H     -2.258800   -1.560400    2.761600
  H     -2.652500   -3.064100    2.277800
  H     -2.792900   -1.833300    1.559700

----------------------------
CARTESIAN COORDINATES (A.U.)
----------------------------
  NO LB      ZA    FRAG     MASS         X           Y           Z
   0 Ti   22.0000    0    47.900    0.000000    0.000000    0.000000
   1 P    15.0000    0    30.974    1.856845    2.419227    3.678730
   2 P    15.0000    0    30.974    1.478711    3.982220   -2.154666
   3 C     6.0000    0    12.011    4.329929    1.119474    5.707162
   4 C     6.0000    0    12.011   -0.324466    3.746193    5.984574
   5 C     6.0000    0    12.011    3.451396    5.327705    2.520328
   6 C     6.0000    0    12.011    2.028999    6.427148    0.274199
   7 C     6.0000    0    12.011   -0.523076    5.733429   -4.365834
   8 C     6.0000    0    12.011    4.494525    3.984677   -3.807987
   9 Cl   17.0000    0    35.453    3.871860   -2.090793   -0.614728
  10 H     1.0000    0     1.008    4.758330    2.205499    6.879926
  11 H     1.0000    0     1.008    5.746657    0.622476    4.561421
  12 H     1.0000    0     1.008    3.602196    0.007937    6.512563
  13 H     1.0000    0     1.008   -1.301454    2.598562    6.645033
  14 H     1.0000    0     1.008    0.452589    4.350528    7.360483
  15 H     1.0000    0     1.008   -1.827932    4.648537    5.111331
  16 H     1.0000    0     1.008    3.561945    6.525980    3.943480
  17 H     1.0000    0     1.008    5.310886    4.804440    1.993850
  18 H     1.0000    0     1.008   -0.740773    4.654962   -5.923158
  19 H     1.0000    0     1.008   -2.410913    5.783885   -3.877340
  20 H     1.0000    0     1.008    0.068597    7.243320   -4.647970
  21 H     1.0000    0     1.008    4.268513    2.948729   -5.218668
  22 H     1.0000    0     1.008    5.012499    5.790310   -4.304418
  23 H     1.0000    0     1.008    5.277816    3.464435   -2.947406
  24 H     1.0000    0     1.008    0.447676    6.839864    0.896864
  25 H     1.0000    0     1.008    2.911123    7.882804   -0.490195
  26 P    15.0000    0    30.974   -1.856845   -2.419227   -3.678730
  27 P    15.0000    0    30.974   -1.478711   -3.982220    2.154666
  28 Cl   17.0000    0    35.453   -3.871860    2.090793    0.614728
  29 C     6.0000    0    12.011   -4.329929   -1.119474   -5.707162
  30 C     6.0000    0    12.011    0.324466   -3.746193   -5.984574
  31 C     6.0000    0    12.011   -3.451396   -5.327705   -2.520328
  32 C     6.0000    0    12.011   -2.028999   -6.427148   -0.274199
  33 C     6.0000    0    12.011    0.523076   -5.733429    4.365834
  34 C     6.0000    0    12.011   -4.494525   -3.984677    3.807987
  35 H     1.0000    0     1.008   -4.758330   -2.205499   -6.879926
  36 H     1.0000    0     1.008   -5.746657   -0.622476   -4.561421
  37 H     1.0000    0     1.008   -3.602196   -0.007937   -6.512563
  38 H     1.0000    0     1.008    1.301454   -2.598562   -6.645033
  39 H     1.0000    0     1.008   -0.452589   -4.350528   -7.360483
  40 H     1.0000    0     1.008    1.827932   -4.648537   -5.111331
  41 H     1.0000    0     1.008   -3.561945   -6.525980   -3.943480
  42 H     1.0000    0     1.008   -5.310886   -4.804440   -1.993850
  43 H     1.0000    0     1.008   -0.447676   -6.839864   -0.896864
  44 H     1.0000    0     1.008   -2.911123   -7.882804    0.490195
  45 H     1.0000    0     1.008    0.740773   -4.654962    5.923158
  46 H     1.0000    0     1.008    2.410913   -5.783885    3.877340
  47 H     1.0000    0     1.008   -0.068597   -7.243320    4.647970
  48 H     1.0000    0     1.008   -4.268513   -2.948729    5.218668
  49 H     1.0000    0     1.008   -5.012499   -5.790310    4.304418
  50 H     1.0000    0     1.008   -5.277816   -3.464435    2.947406

--------------------------------
INTERNAL COORDINATES (ANGSTROEM)
--------------------------------
 Ti     0   0   0     0.000000000000     0.00000000     0.00000000
 P      1   0   0     2.528647007789     0.00000000     0.00000000
 P      1   2   0     2.520530813142    78.71692736     0.00000000
 C      2   1   3     1.827006319091   122.68767116   235.80986343
 C      2   1   3     1.820544251041   117.70278110   108.01447670
 C      2   1   3     1.859192364980   109.97701198   353.27171552
 C      6   2   1     1.522438337011   110.44961015    35.25922292
 C      3   1   2     1.830306911422   122.19616342   227.09384738
 C      3   1   2     1.819985854341   119.35921409    98.40325589
 Cl     1   2   3     2.351155515911    90.35104525    93.45512778
 H      4   2   1     0.875681072080   110.77812578   179.75034088
 H      4   2   1     0.999409215487   106.25895685    55.29817625
 H      4   2   1     0.822148216564   103.79107309   289.57706670
 H      5   2   1     0.870776974891   112.11416553    56.74292968
 H      5   2   1     0.895258113619   113.05757002   170.45891576
 H      5   2   1     1.036591539614   111.43998440   314.55181878
 H      6   2   1     0.986237633636   107.90277580   158.38072473
 H      6   2   1     1.059503454454   106.96911114   274.69437102
 H      8   3   1     1.009014539043   107.56825130   291.80588916
 H      8   3   1     1.032248100022   114.40072608    37.39807621
 H      8   3   1     0.871047128461   111.46738452   165.09726991
 H      9   3   1     0.933857403462   105.75659869    68.89229231
 H      9   3   1     1.028164553950   110.93180852   190.59989829
 H      9   3   1     0.674529094999   102.35684940   311.19918441
 H      7   6   2     0.925474499919   105.02570215    62.13393354
 H      7   6   2     0.987362435988   112.59656322   185.37985505
 P      1   2   3     2.528647007789   180.00000000     0.00000000
 P      1   2   3     2.520530813142   101.28307264   180.00000000
 Cl     1   2   3     2.351155515911    89.64895475   273.45512778
 C     27   1  10     1.827006319091   122.68767116   210.73500879
 C     27   1  10     1.820544251041   117.70278110   338.53039552
 C     27   1  10     1.859192364980   109.97701198    93.27315670
 C     32  27   1     1.522438337011   110.44961015   324.74077708
 C     28   1   2     1.830306911422   122.19616342   312.90615262
 C     28   1   2     1.819985854341   119.35921409    81.59674411
 H     30  27   1     0.875681072080   110.77812578   180.24965912
 H     30  27   1     0.999409215487   106.25895685   304.70182375
 H     30  27   1     0.822148216564   103.79107309    70.42293330
 H     31  27   1     0.870776974891   112.11416553   303.25707032
 H     31  27   1     0.895258113619   113.05757002   189.54108424
 H     31  27   1     1.036591539614   111.43998440    45.44818122
 H     32  27   1     0.986237633636   107.90277580   201.61927527
 H     32  27   1     1.059503454454   106.96911114    85.30562898
 H     33  32  27     0.925474499919   105.02570215   297.86606646
 H     33  32  27     0.987362435988   112.59656322   174.62014495
 H     34  28   1     1.009014539043   107.56825130    68.19411084
 H     34  28   1     1.032248100022   114.40072608   322.60192379
 H     34  28   1     0.871047128461   111.46738452   194.90273009
 H     35  28   1     0.933857403462   105.75659869   291.10770769
 H     35  28   1     1.028164553950   110.93180852   169.40010171
 H     35  28   1     0.674529094999   102.35684940    48.80081559

---------------------------
INTERNAL COORDINATES (A.U.)
---------------------------
 Ti     0   0   0     0.000000000000     0.00000000     0.00000000
 P      1   0   0     4.778450334081     0.00000000     0.00000000
 P      1   2   0     4.763112948949    78.71692736     0.00000000
 C      2   1   3     3.452541588026   122.68767116   235.80986343
 C      2   1   3     3.440330049153   117.70278110   108.01447670
 C      2   1   3     3.513364400090   109.97701198   353.27171552
 C      6   2   1     2.876991512733   110.44961015    35.25922292
 C      3   1   2     3.458778803611   122.19616342   227.09384738
 C      3   1   2     3.439274832314   119.35921409    98.40325589
 Cl     1   2   3     4.443040023331    90.35104525    93.45512778
 H      4   2   1     1.654797406891   110.77812578   179.75034088
 H      4   2   1     1.888609712987   106.25895685    55.29817625
 H      4   2   1     1.553634970798   103.79107309   289.57706670
 H      5   2   1     1.645530006268   112.11416553    56.74292968
 H      5   2   1     1.691792653910   113.05757002   170.45891576
 H      5   2   1     1.958874122611   111.43998440   314.55181878
 H      6   2   1     1.863719030539   107.90277580   158.38072473
 H      6   2   1     2.002171366862   106.96911114   274.69437102
 H      8   3   1     1.906761143936   107.56825130   291.80588916
 H      8   3   1     1.950666211303   114.40072608    37.39807621
 H      8   3   1     1.646040522530   111.46738452   165.09726991
 H      9   3   1     1.764734740677   105.75659869    68.89229231
 H      9   3   1     1.942949427572   110.93180852   190.59989829
 H      9   3   1     1.274675258910   102.35684940   311.19918441
 H      7   6   2     1.748893348774   105.02570215    62.13393354
 H      7   6   2     1.865844598939   112.59656322   185.37985505
 P      1   2   3     4.778450334081   180.00000000     0.00000000
 P      1   2   3     4.763112948949   101.28307264   180.00000000
 Cl     1   2   3     4.443040023331    89.64895475   273.45512778
 C     27   1  10     3.452541588026   122.68767116   210.73500879
 C     27   1  10     3.440330049153   117.70278110   338.53039552
 C     27   1  10     3.513364400090   109.97701198    93.27315670
 C     32  27   1     2.876991512733   110.44961015   324.74077708
 C     28   1   2     3.458778803611   122.19616342   312.90615262
 C     28   1   2     3.439274832314   119.35921409    81.59674411
 H     30  27   1     1.654797406891   110.77812578   180.24965912
 H     30  27   1     1.888609712987   106.25895685   304.70182375
 H     30  27   1     1.553634970798   103.79107309    70.42293330
 H     31  27   1     1.645530006268   112.11416553   303.25707032
 H     31  27   1     1.691792653910   113.05757002   189.54108424
 H     31  27   1     1.958874122611   111.43998440    45.44818122
 H     32  27   1     1.863719030539   107.90277580   201.61927527
 H     32  27   1     2.002171366862   106.96911114    85.30562898
 H     33  32  27     1.748893348774   105.02570215   297.86606646
 H     33  32  27     1.865844598939   112.59656322   174.62014495
 H     34  28   1     1.906761143936   107.56825130    68.19411084
 H     34  28   1     1.950666211303   114.40072608   322.60192379
 H     34  28   1     1.646040522530   111.46738452   194.90273009
 H     35  28   1     1.764734740677   105.75659869   291.10770769
 H     35  28   1     1.942949427572   110.93180852   169.40010171
 H     35  28   1     1.274675258910   102.35684940    48.80081559

---------------------
BASIS SET INFORMATION
---------------------
There are 5 groups of distinct atoms

 Group   1 Type Ti  : 17s11p7d1f contracted to 6s4p4d1f pattern {842111/6311/4111/1}
 Group   2 Type P   : 14s9p3d1f contracted to 5s5p2d1f pattern {73211/51111/21/1}
 Group   3 Type C   : 11s6p2d1f contracted to 5s3p2d1f pattern {62111/411/11/1}
 Group   4 Type Cl  : 14s9p3d1f contracted to 5s5p2d1f pattern {73211/51111/21/1}
 Group   5 Type H   : 5s1p contracted to 3s1p pattern {311/1}

Atom   0Ti   basis set group =>   1
Atom   1P    basis set group =>   2
Atom   2P    basis set group =>   2
Atom   3C    basis set group =>   3
Atom   4C    basis set group =>   3
Atom   5C    basis set group =>   3
Atom   6C    basis set group =>   3
Atom   7C    basis set group =>   3
Atom   8C    basis set group =>   3
Atom   9Cl   basis set group =>   4
Atom  10H    basis set group =>   5
Atom  11H    basis set group =>   5
Atom  12H    basis set group =>   5
Atom  13H    basis set group =>   5
Atom  14H    basis set group =>   5
Atom  15H    basis set group =>   5
Atom  16H    basis set group =>   5
Atom  17H    basis set group =>   5
Atom  18H    basis set group =>   5
Atom  19H    basis set group =>   5
Atom  20H    basis set group =>   5
Atom  21H    basis set group =>   5
Atom  22H    basis set group =>   5
Atom  23H    basis set group =>   5
Atom  24H    basis set group =>   5
Atom  25H    basis set group =>   5
Atom  26P    basis set group =>   2
Atom  27P    basis set group =>   2
Atom  28Cl   basis set group =>   4
Atom  29C    basis set group =>   3
Atom  30C    basis set group =>   3
Atom  31C    basis set group =>   3
Atom  32C    basis set group =>   3
Atom  33C    basis set group =>   3
Atom  34C    basis set group =>   3
Atom  35H    basis set group =>   5
Atom  36H    basis set group =>   5
Atom  37H    basis set group =>   5
Atom  38H    basis set group =>   5
Atom  39H    basis set group =>   5
Atom  40H    basis set group =>   5
Atom  41H    basis set group =>   5
Atom  42H    basis set group =>   5
Atom  43H    basis set group =>   5
Atom  44H    basis set group =>   5
Atom  45H    basis set group =>   5
Atom  46H    basis set group =>   5
Atom  47H    basis set group =>   5
Atom  48H    basis set group =>   5
Atom  49H    basis set group =>   5
Atom  50H    basis set group =>   5
---------------------------------
AUXILIARY/J BASIS SET INFORMATION
---------------------------------
There are 5 groups of distinct atoms

 Group   1 Type Ti  : 19s5p5d3f3g contracted to 8s5p5d2f3g pattern {121111111/11111/11111/21/111}
 Group   2 Type P   : 14s5p5d2f1g contracted to 8s4p3d1f1g pattern {71111111/2111/311/2/1}
 Group   3 Type C   : 12s5p4d2f1g contracted to 6s4p3d1f1g pattern {711111/2111/211/2/1}
 Group   4 Type Cl  : 14s5p5d2f1g contracted to 8s4p3d1f1g pattern {71111111/2111/311/2/1}
 Group   5 Type H   : 5s2p1d contracted to 3s1p1d pattern {311/2/1}

Atom   0Ti   basis set group =>   1
Atom   1P    basis set group =>   2
Atom   2P    basis set group =>   2
Atom   3C    basis set group =>   3
Atom   4C    basis set group =>   3
Atom   5C    basis set group =>   3
Atom   6C    basis set group =>   3
Atom   7C    basis set group =>   3
Atom   8C    basis set group =>   3
Atom   9Cl   basis set group =>   4
Atom  10H    basis set group =>   5
Atom  11H    basis set group =>   5
Atom  12H    basis set group =>   5
Atom  13H    basis set group =>   5
Atom  14H    basis set group =>   5
Atom  15H    basis set group =>   5
Atom  16H    basis set group =>   5
Atom  17H    basis set group =>   5
Atom  18H    basis set group =>   5
Atom  19H    basis set group =>   5
Atom  20H    basis set group =>   5
Atom  21H    basis set group =>   5
Atom  22H    basis set group =>   5
Atom  23H    basis set group =>   5
Atom  24H    basis set group =>   5
Atom  25H    basis set group =>   5
Atom  26P    basis set group =>   2
Atom  27P    basis set group =>   2
Atom  28Cl   basis set group =>   4
Atom  29C    basis set group =>   3
Atom  30C    basis set group =>   3
Atom  31C    basis set group =>   3
Atom  32C    basis set group =>   3
Atom  33C    basis set group =>   3
Atom  34C    basis set group =>   3
Atom  35H    basis set group =>   5
Atom  36H    basis set group =>   5
Atom  37H    basis set group =>   5
Atom  38H    basis set group =>   5
Atom  39H    basis set group =>   5
Atom  40H    basis set group =>   5
Atom  41H    basis set group =>   5
Atom  42H    basis set group =>   5
Atom  43H    basis set group =>   5
Atom  44H    basis set group =>   5
Atom  45H    basis set group =>   5
Atom  46H    basis set group =>   5
Atom  47H    basis set group =>   5
Atom  48H    basis set group =>   5
Atom  49H    basis set group =>   5
Atom  50H    basis set group =>   5


           ************************************************************
           *        Program running with 16 parallel MPI-processes    *
           *              working on a common directory               *
           ************************************************************
------------------------------------------------------------------------------
                             ORCA STARTUP CALCULATIONS
                           -- RI-GTO INTEGRALS CHOSEN --
------------------------------------------------------------------------------
------------------------------------------------------------------------------
                   ___                                                        
                  /   \      - P O W E R E D   B Y -                         
                 /     \                                                     
                 |  |  |   _    _      __       _____    __    __             
                 |  |  |  | |  | |    /  \     |  _  \  |  |  /  |          
                  \  \/   | |  | |   /    \    | | | |  |  | /  /          
                 / \  \   | |__| |  /  /\  \   | |_| |  |  |/  /          
                |  |  |   |  __  | /  /__\  \  |    /   |      \           
                |  |  |   | |  | | |   __   |  |    \   |  |\   \          
                \     /   | |  | | |  |  |  |  | |\  \  |  | \   \       
                 \___/    |_|  |_| |__|  |__|  |_| \__\ |__|  \__/        
                                                                              
                      - O R C A' S   B I G   F R I E N D -                    
                                      &                                       
                       - I N T E G R A L  F E E D E R -                       
                                                                              
 v1 FN, 2020, v2 2021, v3 2022-2024                                           
------------------------------------------------------------------------------


----------------------
SHARK INTEGRAL PACKAGE
----------------------

Number of atoms                             ...     51
Number of basis functions                   ...    831
Number of shells                            ...    353
Maximum angular momentum                    ...      3
Integral batch strategy                     ... SHARK/LIBINT Hybrid
RI-J (if used) integral strategy            ... SPLIT-RIJ (Revised 2003 algorithm where possible)
Printlevel                                  ...      1
Contraction scheme used                     ... SEGMENTED contraction
Prescreening option                         ... SCHWARTZ
   Thresh                                   ... 2.500e-11
   Tcut                                     ... 2.500e-12
   Tpresel                                  ... 2.500e-12 
Coulomb Range Separation                    ... NOT USED
Exchange Range Separation                   ... NOT USED
Multipole approximations                    ... NOT USED
Finite Nucleus Model                        ... NOT USED
CABS basis                                  ... NOT available
Auxiliary Coulomb fitting basis             ... AVAILABLE
   # of basis functions in Aux-J            ...   1335
   # of shells in Aux-J                     ...    465
   Maximum angular momentum in Aux-J        ...      4
Auxiliary J/K fitting basis                 ... NOT available
Auxiliary Correlation fitting basis         ... NOT available
Auxiliary 'external' fitting basis          ... NOT available

Checking pre-screening integrals            ... done (  0.0 sec) Dimension = 353
Check shell pair data                       ... done (  0.0 sec)
Shell pair information
Shell pair cut-off parameter TPreSel        ...   2.5e-12
Total number of shell pairs                 ...     62481
Shell pairs after pre-screening             ...     44694
Total number of primitive shell pairs       ...    199400
Primitive shell pairs kept                  ...     92057
          la=0 lb=0:  13065 shell pairs
          la=1 lb=0:  13728 shell pairs
          la=1 lb=1:   3699 shell pairs
          la=2 lb=0:   5754 shell pairs
          la=2 lb=1:   3140 shell pairs
          la=2 lb=2:    678 shell pairs
          la=3 lb=0:   2544 shell pairs
          la=3 lb=1:   1356 shell pairs
          la=3 lb=2:    588 shell pairs
          la=3 lb=3:    142 shell pairs

Calculating one electron integrals          ... done (  0.0 sec)
done (  0.2 sec)
Calculating Nuclear repulsion               ... done (  0.0 sec) ENN=   3335.582639823078 Eh

Diagonalization of the overlap matrix:
Smallest eigenvalue                        ... 9.216e-05
Time for diagonalization                   ...    0.116 sec
Threshold for overlap eigenvalues          ... 1.000e-07
Number of eigenvalues below threshold      ... 0
Time for construction of square roots      ...    0.087 sec
Total time needed                          ...    0.224 sec

-------------------
DFT GRID GENERATION
-------------------

General Integration Accuracy     IntAcc      ... 4.959
Radial Grid Type                 RadialGrid  ... OptM3 with GC (2021)
Angular Grid (max. ang.)         AngularGrid ... 6 (Lebedev-590)
Angular grid pruning method      GridPruning ... 4 (adaptive)
Weight generation scheme         WeightScheme... mBecke (2022)
Basis function cutoff            BFCut       ... 1.0000e-11
Integration weight cutoff        WCut        ... 1.0000e-14
Partially contracted basis set               ... off
Rotationally invariant grid construction     ... off
Angular grids for H and He will be reduced by one unit
Core-polarized basis detected: some atoms will have their core
                               angular grid increased.

Total number of grid points                  ...   558874
Total number of batches                      ...     8759
Average number of points per batch           ...       63
Average number of grid points per atom       ...    10958

--------------------
COSX GRID GENERATION
--------------------

GRIDX 1
-------
General Integration Accuracy     IntAcc      ... 4.020
Radial Grid Type                 RadialGrid  ... OptM3 with GC (2021)
Angular Grid (max. ang.)         AngularGrid ... 2 (Lebedev-110)
Angular grid pruning method      GridPruning ... 4 (adaptive)
Weight generation scheme         WeightScheme... mBecke (2022)
Basis function cutoff            BFCut       ... 1.0000e-11
Integration weight cutoff        WCut        ... 1.0000e-14
Partially contracted basis set               ... on
Rotationally invariant grid construction     ... off
Angular grids for H and He will be reduced by one unit
Core-polarized basis detected: some atoms will have their core
                               angular grid increased.

Total number of grid points                  ...    60432
Total number of batches                      ...      502
Average number of points per batch           ...      120
Average number of grid points per atom       ...     1185
UseSFitting                                  ... on

GRIDX 2
-------
General Integration Accuracy     IntAcc      ... 4.338
Radial Grid Type                 RadialGrid  ... OptM3 with GC (2021)
Angular Grid (max. ang.)         AngularGrid ... 3 (Lebedev-194)
Angular grid pruning method      GridPruning ... 4 (adaptive)
Weight generation scheme         WeightScheme... mBecke (2022)
Basis function cutoff            BFCut       ... 1.0000e-11
Integration weight cutoff        WCut        ... 1.0000e-14
Partially contracted basis set               ... on
Rotationally invariant grid construction     ... off
Angular grids for H and He will be reduced by one unit
Core-polarized basis detected: some atoms will have their core
                               angular grid increased.

Total number of grid points                  ...   127696
Total number of batches                      ...     1023
Average number of points per batch           ...      124
Average number of grid points per atom       ...     2504
UseSFitting                                  ... on

GRIDX 3
-------
General Integration Accuracy     IntAcc      ... 4.871
Radial Grid Type                 RadialGrid  ... OptM3 with GC (2021)
Angular Grid (max. ang.)         AngularGrid ... 4 (Lebedev-302)
Angular grid pruning method      GridPruning ... 4 (adaptive)
Weight generation scheme         WeightScheme... mBecke (2022)
Basis function cutoff            BFCut       ... 1.0000e-11
Integration weight cutoff        WCut        ... 1.0000e-14
Partially contracted basis set               ... on
Rotationally invariant grid construction     ... off
Angular grids for H and He will be reduced by one unit
Core-polarized basis detected: some atoms will have their core
                               angular grid increased.

Total number of grid points                  ...   247804
Total number of batches                      ...     1956
Average number of points per batch           ...      126
Average number of grid points per atom       ...     4859
UseSFitting                                  ... on
Initializing property integral containers    ... done (  0.0 sec)

SHARK setup successfully completed in   9.2 seconds

Maximum memory used throughout the entire STARTUP-calculation: 177.9 MB


           ************************************************************
           *        Program running with 16 parallel MPI-processes    *
           *              working on a common directory               *
           ************************************************************
-------------------------------------------------------------------------------
                                 ORCA GUESS
                   Start orbitals & Density for SCF / CASSCF
-------------------------------------------------------------------------------

------------
SCF SETTINGS
------------
Hamiltonian:
 Density Functional     Method          .... DFT(GTOs)
 Exchange Functional    Exchange        .... PBE
   PBE kappa parameter   XKappa         ....  0.804000
   PBE mue parameter    XMuePBE         ....  0.219520
 Correlation Functional Correlation     .... PBE
   PBE beta parameter  CBetaPBE         ....  0.066725
 LDA part of GGA corr.  LDAOpt          .... PW91-LDA
 Gradients option       PostSCFGGA      .... off
 Hybrid DFT is turned on
   Fraction HF Exchange ScalHFX         ....  0.250000
   Scaling of DF-GGA-X  ScalDFX         ....  0.750000
   Scaling of DF-GGA-C  ScalDFC         ....  1.000000
   Scaling of DF-LDA-C  ScalLDAC        ....  1.000000
   Perturbative correction              ....  0.000000
   NL short-range parameter             ....  6.900000
 RI-approximation to the Coulomb term is turned on
   Number of AuxJ basis functions       .... 1335
   RIJ-COSX (HFX calculated with COS-X)).... on


General Settings:
 Integral files         IntName         .... DAJFEZ-S3
 Hartree-Fock type      HFTyp           .... UHF
 Total Charge           Charge          ....    0
 Multiplicity           Mult            ....    3
 Number of Electrons    NEL             ....  220
 Basis Dimension        Dim             ....  831
 Nuclear Repulsion      ENuc            ....   3335.5826398231 Eh

Convergence Acceleration:
 AO-DIIS                CNVDIIS         .... on
   Start iteration      DIISMaxIt       ....    12
   Startup error        DIISStart       ....  0.200000
   # of expansion vecs  DIISMaxEq       ....     5
   Bias factor          DIISBfac        ....   1.050
   Max. coefficient     DIISMaxC        ....  10.000
 MO-DIIS                CNVKDIIS        .... off
 Trust-Rad. Augm. Hess. CNVTRAH         .... auto
   Auto Start mean grad. ratio tolernc. ....  1.125000
   Auto Start start iteration           ....    50
   Auto Start num. interpolation iter.  ....    10
   Max. Number of Micro iterations      ....    24
   Max. Number of Macro iterations      .... Maxiter - #DIIS iter
   Number of Davidson start vectors     ....     2
   Converg. threshold    (grad. norm)   ....   1.000e-05
   Grad. Scal. Fac. for Micro threshold ....   0.100
   Minimum threshold for Micro iter.    ....   1.000e-02
   NR start threshold (gradient norm)   ....   1.000e-04
   Initial trust radius                 ....   0.400
   Minimum AH scaling param. (alpha)    ....   1.000
   Maximum AH scaling param. (alpha)    .... 1000.000
   Quad. conv. algorithm                .... NR
   White noise on init. David. guess    .... on
   Maximum white noise                  ....   0.010
   Pseudo random numbers                .... off
   Inactive MOs                         .... canonical
   Orbital update algorithm             .... Taylor
   Preconditioner                       .... Diag
   Full preconditioner red. dimension   ....   250
 SOSCF                  CNVSOSCF        .... on
   Start iteration      SOSCFMaxIt      ....   150
   Startup grad/error   SOSCFStart      ....  0.003300
   Hessian update       SOSCFHessUp     .... L-BFGS
 Level Shifting         CNVShift        .... on
   Level shift para.    LevelShift      ....    0.2500
   Turn off err/grad.   ShiftErr        ....    0.0010
 Zerner damping         CNVZerner       .... off
 Static damping         CNVDamp         .... on
   Fraction old density DampFac         ....    0.7000
   Max. Damping (<1)    DampMax         ....    0.9800
   Min. Damping (>=0)   DampMin         ....    0.0000
   Turn off err/grad.   DampErr         ....    0.1000

SCF Procedure:
 Maximum # iterations   MaxIter         ....   125
 SCF integral mode      SCFMode         .... Direct
   Integral package                     .... SHARK and LIBINT hybrid scheme
 Reset frequency        DirectResetFreq ....    20
 Integral Threshold     Thresh          ....  2.500e-11 Eh
 Primitive CutOff       TCut            ....  2.500e-12 Eh

Convergence Tolerance:
 Convergence Check Mode ConvCheckMode   .... Total+1el-Energy
 Convergence forced     ConvForced      .... 0
 Energy Change          TolE            ....  1.000e-08 Eh
 1-El. energy change                    ....  1.000e-05 Eh
 Orbital Gradient       TolG            ....  1.000e-05
 Orbital Rotation angle TolX            ....  1.000e-05
 DIIS Error             TolErr          ....  5.000e-07

------------------------------
INITIAL GUESS: MODEL POTENTIAL
------------------------------
Loading Hartree-Fock densities                     ... done
Calculating cut-offs                               ... done
Initializing the effective Hamiltonian             ... done
Setting up the integral package (SHARK)            ... done
done (   0.3 sec)
Making the grid                                    ... done (   0.3 sec)
Mapping shells                                     ... done
Starting the XC term evaluation                    ... done (   0.2 sec)
  promolecular density results
     # of electrons  =    219.987059092
     EX              =   -257.740885870
     EC              =     -8.075466473
     EX+EC           =   -265.816352344
Transforming the Hamiltonian                       ... done (   0.1 sec)
done (   0.1 sec)
Back transforming the eigenvectors                 ... done (   0.1 sec)
done
                      ------------------
                      INITIAL GUESS DONE (   1.3 sec)
                      ------------------
             **** ENERGY FILE WAS UPDATED (DAJFEZ-S3.en.tmp) ****
Finished Guess after   1.8 sec
Maximum memory used throughout the entire GUESS-calculation: 79.4 MB


           ************************************************************
           *        Program running with 16 parallel MPI-processes    *
           *              working on a common directory               *
           ************************************************************

-------------------------------------------------------------------------------------------
                                      ORCA LEAN-SCF
                              memory conserving SCF solver
-------------------------------------------------------------------------------------------

----------------------------------------D-I-I-S--------------------------------------------
Iteration    Energy (Eh)           Delta-E    RMSDP     MaxDP     DIISErr   Damp  Time(sec)
-------------------------------------------------------------------------------------------
               ***  Starting incremental Fock matrix formation  ***
    1    -3608.1689814493679478     0.00e+00  5.30e-04  5.02e-02  1.63e-01  0.700  20.2
    2    -3608.7447998369693778    -5.76e-01  4.24e-04  3.74e-02  8.63e-02  0.700  11.0
                               ***Turning on AO-DIIS***
    3    -3609.0010016892624662    -2.56e-01  2.10e-04  1.94e-02  3.63e-02  0.700  10.1
    4    -3609.1475792834867207    -1.47e-01  3.96e-04  4.42e-02  2.04e-02  0.000   9.6
    5    -3609.4583944570090352    -3.11e-01  9.67e-05  6.67e-03  4.19e-03  0.000  10.2
    6    -3609.4599771695707204    -1.58e-03  6.08e-05  4.97e-03  4.53e-03  0.000   9.0
                              *** Initializing SOSCF ***
---------------------------------------S-O-S-C-F--------------------------------------
Iteration    Energy (Eh)           Delta-E    RMSDP     MaxDP     MaxGrad    Time(sec)
--------------------------------------------------------------------------------------
    7    -3609.4603111524188535    -3.34e-04  2.99e-05  2.90e-03  1.88e-03     9.3
               *** Restarting incremental Fock matrix formation ***
    8    -3609.4604535096955260    -1.42e-04  6.39e-05  6.46e-03  1.75e-03    19.9
    9    -3609.4604825991523285    -2.91e-05  3.55e-05  3.65e-03  2.09e-03    13.8
   10    -3609.4605463502671228    -6.38e-05  2.32e-05  2.52e-03  7.48e-04    13.1
   11    -3609.4605579809981464    -1.16e-05  7.65e-06  7.37e-04  1.49e-04    12.4
   12    -3609.4605632431243976    -5.26e-06  5.42e-06  6.00e-04  9.53e-05    11.4
   13    -3609.4605640874247001    -8.44e-07  1.07e-06  1.36e-04  7.86e-05    10.5
   14    -3609.4605642667415850    -1.79e-07  1.79e-06  2.75e-04  7.19e-05     8.1
   15    -3609.4605645063315933    -2.40e-07  4.63e-06  8.33e-04  5.93e-05     8.5
   16    -3609.4605648804904376    -3.74e-07  2.10e-06  3.36e-04  4.24e-05     9.7
   17    -3609.4605650576236258    -1.77e-07  7.64e-07  8.19e-05  3.01e-05     8.6
   18    -3609.4605651130273145    -5.54e-08  4.49e-07  5.57e-05  2.06e-05     7.8
   19    -3609.4605651105107427     2.52e-09  2.11e-07  1.73e-05  1.08e-05     7.3
                 **** Energy Check signals convergence ****

               *****************************************************
               *                     SUCCESS                       *
               *           SCF CONVERGED AFTER  19 CYCLES          *
               *****************************************************

 done (   27.667 sec)
Old exchange energy                            :    -65.702548227 Eh
New exchange energy                            :    -65.702552311 Eh
Exchange energy change after final integration :     -0.000004084 Eh
Total energy after final integration           :  -3609.460569195 Eh
             **** ENERGY FILE WAS UPDATED (DAJFEZ-S3.en.tmp) ****

----------------
TOTAL SCF ENERGY
----------------

Total Energy       :      -3609.46056919491002 Eh          -98218.41542 eV

Components:
Nuclear Repulsion  :       3335.58263982307790 Eh           90765.81807 eV
Electronic Energy  :      -6945.04320493358864 Eh         -188984.23338 eV
One Electron Energy:     -11619.83266615589673 Eh         -316191.72172 eV
Two Electron Energy:       4674.78946122230809 Eh          127207.48834 eV

Virial components:
Potential Energy   :      -7222.37109480877371 Eh         -196530.70892 eV
Kinetic Energy     :       3612.91052561386368 Eh           98312.29350 eV
Virial Ratio       :          1.99904510327768

DFT components:
N(Alpha)           :      111.000111019505 electrons
N(Beta)            :      109.000084514110 electrons
N(Total)           :      220.000195533615 electrons
E(X)               :     -195.996620631113 Eh       
E(C)               :       -8.044779944882 Eh       
E(XC)              :     -204.041400575995 Eh       

---------------
SCF CONVERGENCE
---------------

  Last Energy change         ...   -2.5166e-09  Tolerance :   1.0000e-08
  Last MAX-Density change    ...    1.7349e-05  Tolerance :   1.0000e-07
  Last RMS-Density change    ...    2.1131e-07  Tolerance :   5.0000e-09
  Last DIIS Error            ...    1.8788e-03  Tolerance :   5.0000e-07
  Last Orbital Gradient      ...    1.0834e-05  Tolerance :   1.0000e-05
  Last Orbital Rotation      ...    1.1303e-04  Tolerance :   1.0000e-05


----------------------
UHF SPIN CONTAMINATION
----------------------

Warning: in a DFT calculation there is little theoretical justification to 
         calculate <S**2> as in Hartree-Fock theory. We will do it anyways
         but you should keep in mind that the values have only limited relevance

Expectation value of <S**2>     :     2.007498
Ideal value S*(S+1) for S=1.0   :     2.000000
Deviation                       :     0.007498

----------------
ORBITAL ENERGIES
----------------
                 SPIN UP ORBITALS
  NO   OCC          E(Eh)            E(eV) 
   0   1.0000    -179.009052     -4871.0839 
   1   1.0000    -101.604215     -2764.7912 
   2   1.0000    -101.604213     -2764.7912 
   3   1.0000     -77.198342     -2100.6737 
   4   1.0000     -77.198341     -2100.6737 
   5   1.0000     -77.196534     -2100.6245 
   6   1.0000     -77.196533     -2100.6244 
   7   1.0000     -19.887238      -541.1593 
   8   1.0000     -16.570896      -450.9170 
   9   1.0000     -16.569284      -450.8731 
  10   1.0000     -16.564006      -450.7295 
  11   1.0000     -10.209530      -277.8154 
  12   1.0000     -10.209529      -277.8154 
  13   1.0000     -10.193889      -277.3898 
  14   1.0000     -10.193888      -277.3898 
  15   1.0000     -10.173724      -276.8411 
  16   1.0000     -10.173721      -276.8410 
  17   1.0000     -10.160949      -276.4935 
  18   1.0000     -10.160945      -276.4934 
  19   1.0000     -10.154954      -276.3304 
  20   1.0000     -10.154948      -276.3302 
  21   1.0000     -10.154251      -276.3112 
  22   1.0000     -10.154248      -276.3111 
  23   1.0000      -9.431321      -256.6393 
  24   1.0000      -9.431318      -256.6392 
  25   1.0000      -7.160459      -194.8460 
  26   1.0000      -7.160455      -194.8459 
  27   1.0000      -7.159755      -194.8268 
  28   1.0000      -7.159751      -194.8267 
  29   1.0000      -7.159678      -194.8247 
  30   1.0000      -7.159673      -194.8246 
  31   1.0000      -6.595000      -179.4591 
  32   1.0000      -6.594999      -179.4590 
  33   1.0000      -6.593541      -179.4194 
  34   1.0000      -6.593540      -179.4193 
  35   1.0000      -4.730386      -128.7204 
  36   1.0000      -4.730385      -128.7203 
  37   1.0000      -4.730238      -128.7163 
  38   1.0000      -4.730235      -128.7162 
  39   1.0000      -4.728854      -128.6787 
  40   1.0000      -4.728852      -128.6786 
  41   1.0000      -4.728791      -128.6769 
  42   1.0000      -4.728788      -128.6769 
  43   1.0000      -4.727825      -128.6507 
  44   1.0000      -4.727823      -128.6506 
  45   1.0000      -4.726354      -128.6106 
  46   1.0000      -4.726352      -128.6106 
  47   1.0000      -2.331579       -63.4455 
  48   1.0000      -1.435171       -39.0530 
  49   1.0000      -1.435022       -39.0489 
  50   1.0000      -1.433544       -39.0087 
  51   1.0000      -0.841574       -22.9004 
  52   1.0000      -0.840572       -22.8731 
  53   1.0000      -0.818423       -22.2704 
  54   1.0000      -0.817676       -22.2501 
  55   1.0000      -0.791687       -21.5429 
  56   1.0000      -0.791355       -21.5339 
  57   1.0000      -0.772521       -21.0214 
  58   1.0000      -0.772450       -21.0194 
  59   1.0000      -0.762889       -20.7593 
  60   1.0000      -0.762833       -20.7577 
  61   1.0000      -0.740827       -20.1589 
  62   1.0000      -0.733816       -19.9682 
  63   1.0000      -0.679776       -18.4976 
  64   1.0000      -0.679734       -18.4965 
  65   1.0000      -0.586937       -15.9714 
  66   1.0000      -0.581549       -15.8248 
  67   1.0000      -0.556740       -15.1497 
[...]
128:   3046.50   0.000167    0.85  0.000017  (-0.000130  0.002517 -0.003283)
129:   3046.79   0.006177   31.22  0.000633  (-0.001641  0.016976  0.018488)
130:   3046.90   0.000109    0.55  0.000011  ( 0.000154 -0.001942 -0.002722)
131:   3047.78   0.006444   32.57  0.000660  ( 0.016767  0.013495 -0.014020)
132:   3047.84   0.000201    1.02  0.000021  ( 0.002934  0.002424 -0.002472)
133:   3087.43   0.005885   29.74  0.000595  ( 0.010038  0.021601  0.005245)
134:   3087.51   0.000066    0.33  0.000007  ( 0.001046  0.002283  0.000562)
135:   3099.55   0.000048    0.24  0.000005  (-0.001482  0.000338  0.001587)
136:   3099.61   0.002924   14.78  0.000294  ( 0.011684 -0.002391 -0.012334)
137:   3133.11   0.000783    3.96  0.000078  (-0.004928 -0.006878 -0.002525)
138:   3133.15   0.003825   19.33  0.000381  (-0.010818 -0.015274 -0.005534)
139:   3134.72   0.001343    6.79  0.000134  ( 0.000866  0.011530 -0.000216)
140:   3134.76   0.000907    4.58  0.000090  (-0.000765 -0.009471  0.000157)
141:   3136.22   0.004002   20.22  0.000398  (-0.008005 -0.016218 -0.008433)
142:   3136.25   0.000938    4.74  0.000093  (-0.003873 -0.007856 -0.004081)
143:   3137.58   0.004380   22.13  0.000436  ( 0.008735  0.018947 -0.000588)
144:   3137.61   0.000177    0.89  0.000018  ( 0.001760  0.003807 -0.000114)
145:   3149.23   0.001075    5.44  0.000107  ( 0.001042  0.003044 -0.009809)
146:   3149.26   0.000230    1.16  0.000023  ( 0.000481  0.001378 -0.004551)
147:   3149.82   0.000577    2.92  0.000057  ( 0.000948  0.001294  0.007389)
148:   3149.87   0.000058    0.29  0.000006  (-0.000327 -0.000417 -0.002340)
149:   3149.98   0.000031    0.15  0.000003  ( 0.000710  0.000035 -0.001591)
150:   3150.03   0.000395    2.00  0.000039  ( 0.001802 -0.000171 -0.005988)
151:   3151.80   0.000085    0.43  0.000008  ( 0.000308 -0.000902  0.002737)
152:   3151.82   0.000420    2.12  0.000042  (-0.000670  0.001980 -0.006104)

* The epsilon (eps) is given for a Dirac delta lineshape.
** The dipole moment derivative (T) already includes vibrational overlap.

The first frequency considered to be a vibration is 6
The total number of vibrations considered is 147


--------------------------
THERMOCHEMISTRY AT 298.15K
--------------------------

Temperature         ...   298.15 K
Pressure            ...     1.00 atm
Total Mass          ...   419.09 AMU
Quasi RRHO          ...     True
Cut-Off Frequency   ...     1.00 cm^-1

Throughout the following assumptions are being made:
  (1) The electronic state is orbitally nondegenerate
      but the spin degeneracy is treated
  (2) There are no thermally accessible electronically excited states
  (3) Hindered rotations indicated by low frequency modes are not
      treated as such but are treated as vibrations and this may
      cause some error
  (4) All equations used are the standard statistical mechanics
      equations for an ideal gas
  (5) All vibrations are strictly harmonic

freq.      26.00  E(vib)   ...       0.56 
freq.      27.74  E(vib)   ...       0.55 
freq.      39.31  E(vib)   ...       0.54 
freq.      42.65  E(vib)   ...       0.53 
freq.      68.09  E(vib)   ...       0.50 
freq.      78.76  E(vib)   ...       0.49 
freq.      83.00  E(vib)   ...       0.48 
freq.      83.89  E(vib)   ...       0.48 
freq.      96.23  E(vib)   ...       0.47 
freq.     100.10  E(vib)   ...       0.46 
freq.     119.00  E(vib)   ...       0.44 
freq.     126.68  E(vib)   ...       0.43 
freq.     127.53  E(vib)   ...       0.43 
freq.     133.36  E(vib)   ...       0.42 
freq.     135.25  E(vib)   ...       0.42 
freq.     140.95  E(vib)   ...       0.41 
freq.     146.38  E(vib)   ...       0.41 
freq.     147.25  E(vib)   ...       0.41 
freq.     161.11  E(vib)   ...       0.39 
freq.     169.83  E(vib)   ...       0.38 
freq.     173.93  E(vib)   ...       0.38 
freq.     178.01  E(vib)   ...       0.37 
freq.     178.62  E(vib)   ...       0.37 
freq.     194.84  E(vib)   ...       0.36 
freq.     196.57  E(vib)   ...       0.36 
freq.     203.77  E(vib)   ...       0.35 
freq.     205.01  E(vib)   ...       0.35 
freq.     208.01  E(vib)   ...       0.34 
freq.     216.65  E(vib)   ...       0.34 
freq.     224.08  E(vib)   ...       0.33 
freq.     225.22  E(vib)   ...       0.33 
freq.     234.37  E(vib)   ...       0.32 
freq.     234.40  E(vib)   ...       0.32 
freq.     248.01  E(vib)   ...       0.31 
freq.     253.29  E(vib)   ...       0.30 
freq.     261.05  E(vib)   ...       0.30 
freq.     278.90  E(vib)   ...       0.28 
freq.     293.10  E(vib)   ...       0.27 
freq.     297.84  E(vib)   ...       0.27 
freq.     298.60  E(vib)   ...       0.26 
freq.     312.04  E(vib)   ...       0.25 
freq.     325.23  E(vib)   ...       0.24 
freq.     333.18  E(vib)   ...       0.24 
freq.     430.58  E(vib)   ...       0.18 
freq.     433.68  E(vib)   ...       0.17 
freq.     632.54  E(vib)   ...       0.09 
freq.     635.00  E(vib)   ...       0.09 
freq.     649.03  E(vib)   ...       0.08 
freq.     652.35  E(vib)   ...       0.08 
freq.     708.78  E(vib)   ...       0.07 
freq.     711.41  E(vib)   ...       0.07 
freq.     713.28  E(vib)   ...       0.07 
freq.     714.79  E(vib)   ...       0.07 
freq.     741.04  E(vib)   ...       0.06 
freq.     742.16  E(vib)   ...       0.06 
freq.     743.33  E(vib)   ...       0.06 
freq.     745.30  E(vib)   ...       0.06 
freq.     792.93  E(vib)   ...       0.05 
freq.     794.47  E(vib)   ...       0.05 
freq.     800.60  E(vib)   ...       0.05 
freq.     801.44  E(vib)   ...       0.05 
freq.     831.37  E(vib)   ...       0.04 
freq.     834.29  E(vib)   ...       0.04 
freq.     840.96  E(vib)   ...       0.04 
freq.     842.62  E(vib)   ...       0.04 
freq.     867.89  E(vib)   ...       0.04 
freq.     869.22  E(vib)   ...       0.04 
freq.     899.20  E(vib)   ...       0.03 
freq.     902.28  E(vib)   ...       0.03 
freq.     920.91  E(vib)   ...       0.03 
freq.     927.77  E(vib)   ...       0.03 
freq.     941.79  E(vib)   ...       0.03 
freq.     945.24  E(vib)   ...       0.03 
freq.     957.05  E(vib)   ...       0.03 
freq.     961.26  E(vib)   ...       0.03 
freq.     961.52  E(vib)   ...       0.03 
freq.     969.05  E(vib)   ...       0.03 
freq.    1023.36  E(vib)   ...       0.02 
freq.    1024.49  E(vib)   ...       0.02 
freq.    1102.41  E(vib)   ...       0.02 
freq.    1103.37  E(vib)   ...       0.02 
freq.    1158.36  E(vib)   ...       0.01 
freq.    1160.72  E(vib)   ...       0.01 
freq.    1270.48  E(vib)   ...       0.01 
freq.    1271.50  E(vib)   ...       0.01 
freq.    1296.30  E(vib)   ...       0.01 
freq.    1296.98  E(vib)   ...       0.01 
freq.    1301.56  E(vib)   ...       0.01 
freq.    1301.79  E(vib)   ...       0.01 
freq.    1303.40  E(vib)   ...       0.01 
freq.    1305.04  E(vib)   ...       0.01 
freq.    1316.36  E(vib)   ...       0.01 
freq.    1317.47  E(vib)   ...       0.01 
freq.    1320.04  E(vib)   ...       0.01 
freq.    1320.13  E(vib)   ...       0.01 
freq.    1436.01  E(vib)   ...       0.00 
freq.    1438.21  E(vib)   ...       0.00 
freq.    1438.63  E(vib)   ...       0.00 
freq.    1440.32  E(vib)   ...       0.00 
freq.    1443.96  E(vib)   ...       0.00 
freq.    1446.27  E(vib)   ...       0.00 
freq.    1446.91  E(vib)   ...       0.00 
freq.    1449.51  E(vib)   ...       0.00 
freq.    1450.28  E(vib)   ...       0.00 
freq.    1452.42  E(vib)   ...       0.00 
freq.    1453.82  E(vib)   ...       0.00 
freq.    1454.08  E(vib)   ...       0.00 
freq.    1454.91  E(vib)   ...       0.00 
freq.    1455.82  E(vib)   ...       0.00 
freq.    1457.49  E(vib)   ...       0.00 
freq.    1458.35  E(vib)   ...       0.00 
freq.    1461.49  E(vib)   ...       0.00 
freq.    1462.34  E(vib)   ...       0.00 
freq.    1467.62  E(vib)   ...       0.00 
freq.    1468.14  E(vib)   ...       0.00 
freq.    3038.15  E(vib)   ...       0.00 
freq.    3038.20  E(vib)   ...       0.00 
freq.    3043.91  E(vib)   ...       0.00 
freq.    3044.02  E(vib)   ...       0.00 
freq.    3045.46  E(vib)   ...       0.00 
freq.    3045.48  E(vib)   ...       0.00 
freq.    3046.39  E(vib)   ...       0.00 
freq.    3046.50  E(vib)   ...       0.00 
freq.    3046.79  E(vib)   ...       0.00 
freq.    3046.90  E(vib)   ...       0.00 
freq.    3047.78  E(vib)   ...       0.00 
freq.    3047.84  E(vib)   ...       0.00 
freq.    3087.43  E(vib)   ...       0.00 
freq.    3087.51  E(vib)   ...       0.00 
freq.    3099.55  E(vib)   ...       0.00 
freq.    3099.61  E(vib)   ...       0.00 
freq.    3133.11  E(vib)   ...       0.00 
freq.    3133.15  E(vib)   ...       0.00 
freq.    3134.72  E(vib)   ...       0.00 
freq.    3134.76  E(vib)   ...       0.00 
freq.    3136.22  E(vib)   ...       0.00 
freq.    3136.25  E(vib)   ...       0.00 
freq.    3137.58  E(vib)   ...       0.00 
freq.    3137.61  E(vib)   ...       0.00 
freq.    3149.23  E(vib)   ...       0.00 
freq.    3149.26  E(vib)   ...       0.00 
freq.    3149.82  E(vib)   ...       0.00 
freq.    3149.87  E(vib)   ...       0.00 
freq.    3149.98  E(vib)   ...       0.00 
freq.    3150.03  E(vib)   ...       0.00 
freq.    3151.80  E(vib)   ...       0.00 
freq.    3151.82  E(vib)   ...       0.00 

------------
INNER ENERGY
------------

The inner energy is: U= E(el) + E(ZPE) + E(vib) + E(rot) + E(trans)
    E(el)   - is the total energy from the electronic structure calculation
              = E(kin-el) + E(nuc-el) + E(el-el) + E(nuc-nuc)
    E(ZPE)  - the the zero temperature vibrational energy from the frequency calculation
    E(vib)  - the the finite temperature correction to E(ZPE) due to population
              of excited vibrational states
    E(rot)  - is the rotational thermal energy
    E(trans)- is the translational thermal energy

Summary of contributions to the inner energy U:
Electronic energy                ...  -3610.72546166 Eh
Zero point energy                ...      0.42139276 Eh     264.43 kcal/mol
Thermal vibrational correction   ...      0.02970180 Eh      18.64 kcal/mol
Thermal rotational correction    ...      0.00141627 Eh       0.89 kcal/mol
Thermal translational correction ...      0.00141627 Eh       0.89 kcal/mol
-----------------------------------------------------------------------
Total thermal energy                  -3610.27153455 Eh


Summary of corrections to the electronic energy:
(perhaps to be used in another calculation)
Total thermal correction                  0.03253435 Eh      20.42 kcal/mol
Non-thermal (ZPE) correction              0.42139276 Eh     264.43 kcal/mol
-----------------------------------------------------------------------
Total correction                          0.45392711 Eh     284.84 kcal/mol


--------
ENTHALPY
--------

The enthalpy is H = U + kB*T
                kB is Boltzmann's constant
Total thermal energy              ...  -3610.27153455 Eh 
Thermal Enthalpy correction       ...      0.00094421 Eh       0.59 kcal/mol
-----------------------------------------------------------------------
Total Enthalpy                    ...  -3610.27059034 Eh


WARNING (ORCA/SYM): A non-planar off-center atom subset has been encountered
in function TSymmetryFinder::FilterSubsetShapes() which cannot occur under
regular conditions. The full point group may not be assigned correctly. If the
symmetry appears to be too low, please try increasing the cleaning tolerance
using option SymThresh in the %symmetry input block. If the problem persists,
you may post a message in the ORCA forum.

Note: Only C1 symmetry has been detected, increase convergence thresholds 
      if your molecule has a higher symmetry. Symmetry factor of 1.0 is   
      used for the rotational entropy correction. 
 

Note: Rotational entropy computed according to Herzberg 
Infrared and Raman Spectra, Chapter V,1, Van Nostrand Reinhold, 1945 
Point Group:  C1, Symmetry Number:   1  
Rotational constants in cm-1:     0.008398     0.006490     0.005261 

Vibrational entropy computed according to the QRRHO of S. Grimme
Chem.Eur.J. 2012 18 9955 using a reference frequency of 100.0 cm-1


-------
ENTROPY
-------

The entropy contributions are T*S = T*(S(el)+S(vib)+S(rot)+S(trans))
     S(el)   - electronic entropy
     S(vib)  - vibrational entropy
     S(rot)  - rotational entropy
     S(trans)- translational entropy
The entropies will be listed as multiplied by the temperature to get
units of energy

Electronic entropy                ...      0.00103729 Eh      0.65 kcal/mol
Vibrational entropy               ...      0.05442935 Eh     34.15 kcal/mol
Rotational entropy                ...      0.01662270 Eh     10.43 kcal/mol
Translational entropy             ...      0.02090064 Eh     13.12 kcal/mol
-----------------------------------------------------------------------
Final entropy term                ...      0.09298998 Eh     58.35 kcal/mol

In case the symmetry of your molecule has not been determined correctly
or in case you have a reason to use a different symmetry number we print 
out the resulting rotational entropy values for sn=1,12:

 non-linear molecules -----------------------------------
|  sn= 1 | S(rot)=       0.01662270 Eh     10.43 kcal/mol|
|  sn= 2 | S(rot)=       0.01596825 Eh     10.02 kcal/mol|
|  sn= 3 | S(rot)=       0.01558541 Eh      9.78 kcal/mol|
|  sn= 4 | S(rot)=       0.01531379 Eh      9.61 kcal/mol|
|  sn= 5 | S(rot)=       0.01510310 Eh      9.48 kcal/mol|
|  sn= 6 | S(rot)=       0.01493096 Eh      9.37 kcal/mol|
|  sn= 7 | S(rot)=       0.01478541 Eh      9.28 kcal/mol|
|  sn= 8 | S(rot)=       0.01465933 Eh      9.20 kcal/mol|
|  sn= 9 | S(rot)=       0.01454812 Eh      9.13 kcal/mol|
|  sn=10 | S(rot)=       0.01444864 Eh      9.07 kcal/mol|
|  sn=11 | S(rot)=       0.01435865 Eh      9.01 kcal/mol|
|  sn=12 | S(rot)=       0.01427650 Eh      8.96 kcal/mol|
 linear molecules ---------------------------------------
|  Dinfh | S(rot)=       0.01028034 Eh      6.45 kcal/mol|
|  Cinfv | S(rot)=       0.01093480 Eh      6.86 kcal/mol|
 --------------------------------------------------------


-------------------
GIBBS FREE ENERGY
-------------------

The Gibbs free energy is G = H - T*S

Total enthalpy                    ...  -3610.27059034 Eh 
Total entropy correction          ...     -0.09298998 Eh    -58.35 kcal/mol
-----------------------------------------------------------------------
Final Gibbs free energy         ...  -3610.36358033 Eh

For completeness - the Gibbs free energy minus the electronic energy
G-E(el)                           ...      0.36188133 Eh    227.08 kcal/mol


Maximum memory used throughout the entire PROP-calculation: 1170.9 MB

--------------------------------
SUGGESTED CITATIONS FOR THIS RUN
--------------------------------

Below you find a list of papers that are relevant to this ORCA run
We neither can nor want to force you to cite these papers, but we appreciate if you do
You receive ORCA, which is the product of decades of hard work by many enthusiastic individuals, for free
The only thing we kindly ask in return is that you cite our papers,
We deeply appreciate it, if you show your appreciation for ORCA by not just citing the generic ORCA reference.

Please note that relegating all ORCA citations to the supporting information does *not* help us.
SI sections are not indexed - citations you put there will not count into any citation statistics
But we need these citations in order to attract the funding resources that allow us to do what we are doing

Therefore, if you are a happy ORCA user, please consider citing a few of the papers listed below in the main body of your paper

In addition to the list printed below, the program has created the file DAJFEZ-S3.bibtex that contains the list in bibtex format
You can import this file easily into all common literature databanks and citation aid programs


List of essential papers. We consider these as the minimum necessary citations

  1. Neese,F.
     Software update: the ORCA program system, version 5.0
     WIRES Comput. Molec. Sci., 2022 12(1)e1606
     doi.org/10.1002/wcms.1606

List of papers to cite with high priority. The work reported in these papers was absolutely
necessary for this run to complete.
Our perspective: the developers of density functionals and basis sets usually get cited in chemistry papers
Good! But without the algorithms to do something with them, the functionals or basis sets would not do anything.
Hence, in our opinion, the algorithm design and method developments papers are equally worthy of getting cited

  1. Neese,F.
     An improvement of the resolution of the identity approximation for the formation of the Coulomb matrix
     J. Comp. Chem., 2003 24(14)1740-1747
     doi.org/10.1002/jcc.10318
  2. Neese,F.; Wennmohs,F.; Hansen,A.; Becker,U.
     Efficient, approximate and parallel Hartree-Fock and hybrid DFT calculations. A 'chain-of-spheres' algorithm for the Hartree-Fock exchange
     Chem. Phys., 2009 356(1-3)98-109
     doi.org/10.1016/j.chemphys.2008.10.036
  3. Bykov,D.; Petrenko,T.; Izsak,R.; Kossmann,S.; Becker,U.; Valeev,E.; Neese,F.
     Efficient implementation of the analytic second derivatives of Hartree-Fock and hybrid DFT energies: a detailed analysis of different approximations
     Molec. Phys., 2015 113 1961-1977
     doi.org/10.1080/00268976.2015.1025114
  4. Helmich-Paris,B.; de Souza,B.; Neese,F.; Izsák,R.
     An improved chain of spheres for exchange algorithm
     J. Chem. Phys., 2021 155 104109
     doi.org/doi: 10.1063/5.0058766.
  5. Neese,F.
     The SHARK Integral Generation and Digestion System
     J. Comp. Chem., 2022  1-16
     doi.org/10.1002/jcc.26942

List of suggested additional citations. These are papers that are important in the 'surrounding' of 
of this run, or papers that preceded the highly important papers. If you like your results we are grateful for a citation.

  1. Izsak,R.; Neese,F.
     An overlap fitted chain of spheres exchange method
     J. Chem. Phys., 2011 135 144105
     doi.org/10.1063/1.3646921
  2. Izsak,R.; Hansen,A.; Neese,F.
     The resolution of identity and chain of spheres approximations for the LPNO-CCSD singles Fock term
     Molec. Phys., 2012 110 2413-2417
     doi.org/10.1080/00268976.2012.687466
  3. Neese,F.
     The ORCA program system
     WIRES Comput. Molec. Sci., 2012 2(1)73-78
     doi.org/10.1002/wcms.81
  4. Izsak,R.; Neese,F.; Klopper,W.
     Robust fitting techniques in the chain of spheres approximation to the Fock exchange: The role of the complementary space
     J. Chem. Phys., 2013 139 
     doi.org/10.1063/1.4819264
  5. Neese,F.
     Software update: the ORCA program system, version 4.0
     WIRES Comput. Molec. Sci., 2018 8(1)1-6
     doi.org/10.1002/wcms.1327
  6. Neese,F.; Wennmohs,F.; Becker,U.; Riplinger,C.
     The ORCA quantum chemistry program package
     J. Chem. Phys., 2020 152 Art. No. L224108
     doi.org/10.1063/5.0004608

List of optional additional citations

  1. Neese,F.
     Approximate second-order SCF convergence for spin unrestricted wavefunctions
     Chem. Phys. Lett., 2000 325(1-3)93-98
     doi.org/10.1016/s0009-2614(00)00662-x

Timings for individual modules:

Sum of individual times          ...    11292.958 sec (= 188.216 min)
Startup calculation              ...      173.612 sec (=   2.894 min)   1.5 %
SCF iterations                   ...     2745.306 sec (=  45.755 min)  24.3 %
Property integrals               ...     2961.676 sec (=  49.361 min)  26.2 %
SCF Response                     ...     3784.346 sec (=  63.072 min)  33.5 %
Property calculations            ...      883.168 sec (=  14.719 min)   7.8 %
SCF Gradient evaluation          ...      744.209 sec (=  12.403 min)   6.6 %
Geometry relaxation              ...        0.641 sec (=   0.011 min)   0.0 %
                             ****ORCA TERMINATED NORMALLY****
TOTAL RUN TIME: 0 days 3 hours 8 minutes 39 seconds 960 msec
