
                                 *****************
                                 * O   R   C   A *
                                 *****************

                                            #,                                       
                                            ###                                      
                                            ####                                     
                                            #####                                    
                                            ######                                   
                                           ########,                                 
                                     ,,################,,,,,                         
                               ,,#################################,,                 
                          ,,##########################################,,             
                       ,#########################################, ''#####,          
                    ,#############################################,,   '####,        
                  ,##################################################,,,,####,       
                ,###########''''           ''''###############################       
              ,#####''   ,,,,##########,,,,          '''####'''          '####       
            ,##' ,,,,###########################,,,                        '##       
           ' ,,###''''                  '''############,,,                           
         ,,##''                                '''############,,,,        ,,,,,,###''
      ,#''                                            '''#######################'''  
     '                                                          ''''####''''         
             ,#######,   #######,   ,#######,      ##                                
            ,#'     '#,  ##    ##  ,#'     '#,    #''#        ,####,   ,####,        
            ##       ##  ##   ,#'  ##            #'  '#       #'       #'  '#        
            ##       ##  #######   ##           ,######,      #####,   #    #        
            '#,     ,#'  ##    ##  '#,     ,#' ,#      #,     #,   #   #,  ,#        
             '#######'   ##     ##  '#######'  #'      '#     '####' # '####'        



                #########################################################
                #                        -***-                          #
                #          Department of theory and spectroscopy        #
                #                                                       #
                #                      Frank Neese                      #
                #                                                       #
                #     Directorship, Architecture, Infrastructure        #
                #                    SHARK, DRIVERS                     #
                #        Core code/Algorithms in most modules           #
                #                                                       #
                #        Max Planck Institute fuer Kohlenforschung      #
                #                Kaiser Wilhelm Platz 1                 #
                #                 D-45470 Muelheim/Ruhr                 #
                #                      Germany                          #
                #                                                       #
                #                  All rights reserved                  #
                #                        -***-                          #
                #########################################################


                         Program Version 6.0.1  -  RELEASE   -


 With contributions from (in alphabetic order):
[Max-Planck-Institut fuer Kohlenforschung]                               
  Daniel Aravena         : Magnetic Suceptibility                        
  Michael Atanasov       : Ab Initio Ligand Field Theory (pilot matlab implementation)
  Alexander A. Auer      : GIAO ZORA, VPT2 properties, NMR spectrum      
  Ute Becker             : All parallelization in ORCA, NUMFREQ, NUMCALC 
  Giovanni Bistoni       : ED, misc. LED, open-shell LED, HFLD           
  Martin Brehm           : Molecular dynamics                            
  Dmytro Bykov           : pre 5.0 version of the SCF Hessian            
  Marcos Casanova-Páez   : Triplet and SCS-CIS(D). UHF-(DLPNO)-IP/EA/STEOM-CCSD. UHF-CVS-IP/STEOM-CCSD   
  Vijay G. Chilkuri      : MRCI spin determinant printing, contributions to CSF-ICE 
  Pauline Colinet        : FMM embedding                                 
  Dipayan Datta          : RHF DLPNO-CCSD density                        
  Achintya Kumar Dutta   : EOM-CC, STEOM-CC                              
  Nicolas Foglia         : Exact transition moments, OPA infrastructure, MCD improvements    
  Dmitry Ganyushin       : Spin-Orbit,Spin-Spin,Magnetic field MRCI      
  Miquel Garcia-Rates    : C-PCM and meta-GGA Hessian, CCSD/C-PCM, Gaussian charge scheme 
  Tiago L. C. Gouveia    : GS-ROHF, GS-ROCIS                             
  Yang Guo               : DLPNO-NEVPT2, F12-NEVPT2, CIM, IAO-localization        
  Andreas Hansen         : Spin unrestricted coupled pair/coupled cluster methods 
  Ingolf Harden          : AUTO-CI MPn and infrastructure                
  Benjamin Helmich-Paris : MC-RPA, TRAH-(SCF,CASSCF), AVAS, COSX integrals, SCF dyn. polar. 
  Lee Huntington         : MR-EOM, pCC                                   
  Robert Izsak           : Overlap fitted RIJCOSX, COSX-SCS-MP3, EOM     
  Riya Kayal             : Wick's Theorem for AUTO-CI, AUTO-CI UHF-CCSDT 
  Emily Kempfer          : AUTO-CI, RHF CISDT and CCSDT                  
  Christian Kollmar      : KDIIS, OOCD, Brueckner-CCSD(T), CCSD density, CASPT2, CASPT2-K, improved NEVPT2 
  Axel Koslowski         : Symmetry handling                             
  Simone Kossmann        : meta-GGA functionals, TD-DFT gradient, OOMP2, (MP2 Hessian; deprecated post 5.0) 
  Lucas Lang             : DCDCAS                                        
  Marvin Lechner         : AUTO-CI (C++ implementation), FIC-MRCC        
  Spencer Leger          : CASSCF response                               
  Dagmar Lenk            : GEPOL surface, SMD, ORCA-2-JSON               
  Dimitrios Liakos       : Extrapolation schemes; Compound Job, initial MDCI parallelization 
  Dimitrios Manganas     : Further ROCIS development; embedding schemes. LFT, Crystal Embedding 
  Dimitrios Pantazis     : SARC Basis sets                               
  Anastasios Papadopoulos: AUTO-CI, single reference methods and gradients 
  Taras Petrenko         : pre 6.0 DFT Hessian and TD-DFT gradient, (ASA, deprecated), ECA, 1-Electron XAS/XES, NRVS 
  Peter Pinski           : DLPNO-MP2, DLPNO-MP2 Gradient                 
  Christoph Reimann      : Effective Core Potentials                     
  Marius Retegan         : Local ZFS, SOC                                
  Christoph Riplinger    : Optimizer, TS searches, QM/MM, DLPNO-CCSD(T), (RO)-DLPNO pert. Triples 
  Michael Roemelt        : Original ROCIS implementation                 
  Masaaki Saitow         : Open-shell DLPNO-CCSD energy and density      
  Barbara Sandhoefer     : DKH picture change effects                    
  Kantharuban Sivalingam : CASSCF convergence/infrastructure, NEVPT2 and variants, FIC-MRCI 
  Bernardo de Souza      : ESD, SOC TD-DFT                               
  Georgi L. Stoychev     : AutoAux, RI-MP2 NMR, DLPNO-MP2 response, X2C  
  Van Anh Tran           : RI-MP2 g-tensors                              
  Willem Van den Heuvel  : Paramagnetic NMR                              
  Zikuan Wang            : NOTCH, Electric field optimization            
  Frank Wennmohs         : Technical directorship and infrastructure     
  Hang Xu                : AUTO-CI-Response properties                   
                                                                         
[FACCTs GmbH]                                                            
  Markus Bursch, Miquel Garcia-Rates, Christoph Riplinger, Bernardo de Souza, Georgi L. Stoychev 
                                                                 
  APM, Basis sets (HGBS, AHGBS, def-TZVP (Ac-Lr), def2-XVPD (La-Lu)), CI-OPT, improved COSX, DLPNO-Multilevel,           
  DOCKER, DRACO, updates on ESD, GOAT, IRC, LR-CPCM, MBIS, meta-GGA TD-DFT gradient, ML-optimized integration grids, 
  MM, NACMEs, nearIR, NEB, NEB-TS, NL-DFT gradient (VV10), 2- and 3-layer-ONIOM, interface openCOSMO-RS, QMMM,   
  Crystal-QMMM, SF, symmetry and pop. for TD-DFT, r2SCAN hybrids, SOLVATOR                                   
                                                                         
[Other institutions]                                                     
  V. Asgeirsson          : NEB                                           
  Christoph Bannwarth    : sTDA-DFT, sTD-DFT, PBEh-3c, B97-3c, D3        
  Sebastian Ehlert       : rSCAN, r2SCAN, r2SCAN-3c, D4, dhf basis sets  
  Marvin Friede          : D4 for Fr, Ra, Ac-Lr                          
  Lars Goerigk           : TD-DFT with DH, B97 family of functionals     
  Stefan Grimme          : VdW corrections, initial TS optimization, DFT functionals, gCP, sTDA/sTD-DF 
  Waldemar Hujo          : DFT-NL                                        
  H. Jonsson             : NEB                                           
  Holger Kruse           : gCP                                           
  Marcel Mueller         : wB97X-3c, vDZP basis set                      
  Hagen Neugebauer       : wr2SCAN                                       
  Tobias Risthaus        : range-separated hybrid DFT                    
  Lukas Wittmann         : regularized MP2, r2SCAN double-hybrids, wr2SCAN        
                                                                         
We gratefully acknowledge several colleagues who have allowed us to      
interface, adapt or use parts of their codes:                            
  Ed Valeev, F. Pavosevic, A. Kumar             : LibInt (2-el integral package), F12 methods 
  Garnet Chan, S. Sharma, J. Yang, R. Olivares  : DMRG                   
  Ulf Ekstrom                                   : XCFun DFT Library      
  Mihaly Kallay                                 : mrcc  (arbitrary order and MRCC methods)
  Frank Weinhold                                : gennbo (NPA and NBO analysis)           
  Simon Mueller                                 : openCOSMO-RS                            
  Christopher J. Cramer and Donald G. Truhlar   : smd solvation model                     
  S Lehtola, MJT Oliveira, MAL Marques          : LibXC Library                           
  Liviu Ungur et al                             : ANISO software                          


 Your calculation uses the libint2 library for the computation of 2-el integrals
 For citations please refer to: http://libint.valeyev.net

 Your ORCA version has been built with support for libXC version: 6.2.2
 For citations please refer to: https://libxc.gitlab.io

 This ORCA versions uses:
   CBLAS   interface :  Fast vector & matrix operations
   LAPACKE interface :  Fast linear algebra routines
   SCALAPACK package :  Parallel linear algebra routines
   Shared memory     :  Shared parallel matrices
   BLAS/LAPACK       :  OpenBLAS 0.3.27  USE64BITINT DYNAMIC_ARCH NO_AFFINITY Cooperlake SINGLE_THREADED
        Core in use  :  Cooperlake
   Copyright (c) 2011-2014, The OpenBLAS Project


NOTE: MaxCore=3600 MB was set to SCF,MP2,MDCI,CIPSI,MRCI and CIS
      => If you want to overwrite this, your respective input block should be placed after the MaxCore statement
Warning: RI is on but no J-basis has been assigned. Assigning Def2/J (nothing to worry about!)
================================================================================

----- Orbital basis set information -----
Your calculation utilizes the basis: def2-TZVP
   F. Weigend and R. Ahlrichs, Phys. Chem. Chem. Phys. 7, 3297 (2005).

----- AuxJ basis set information -----
Your calculation utilizes the auxiliary basis: def2/J
   F. Weigend, Phys. Chem. Chem. Phys. 8, 1057 (2006).

================================================================================
                                        WARNINGS
                       Please study these warnings very carefully!
================================================================================


WARNING: your system is open-shell and RHF/RKS was chosen
  ===> : WILL SWITCH to UHF/UKS


WARNING: Geometry Optimization
  ===> : Switching off AutoStart
         For restart on a previous wavefunction, please use MOREAD

================================================================================
                                       INPUT FILE
================================================================================
NAME = GENZII-S3.inp
|  1> ! PBE0 def2-TZVP  Opt Freq DEFGRID3
|  2> 
|  3> %maxcore 3600
|  4> 
|  5> %pal
|  6>     nprocs 16
|  7> end
|  8> 
|  9> *xyz 0 3
| 10> Cr 0.4429 4.2867 4.5473
| 11> Cl -0.6331 6.2228 5.2561
| 12> Cl 2.1966 5.4888 3.6215
| 13> N 1.5098 4.0486 6.2749
| 14> C 1.5986 4.8906 7.3133
| 15> C 2.3929 4.6227 8.4168
| 16> C 3.1319 3.445 8.4545
| 17> C 3.0581 2.57 7.3835
| 18> C 2.2347 2.9 6.3169
| 19> N 2.181 2.0585 5.2026
| 20> N 1.5003 2.5798 4.2488
| 21> C 1.4742 1.7737 3.0591
| 22> C 1.7567 2.3924 1.8471
| 23> C 1.7735 1.6239 0.6868
| 24> C 1.4875 0.269 0.7446
| 25> C 1.1833 -0.3295 1.9556
| 26> C 1.1855 0.4137 3.1296
| 27> N -0.6438 4.1165 2.8442
| 28> C -0.4667 4.7524 1.6657
| 29> C -1.2644 4.5098 0.566
| 30> C -2.2934 3.5725 0.6673
| 31> C -2.4894 2.9086 1.8557
| 32> C -1.6502 3.2054 2.9397
| 33> N -1.8548 2.5879 4.1502
| 34> N -1.0389 3.0628 5.0644
| 35> C -1.2487 2.458 6.3427
| 36> C -1.4743 1.0825 6.4472
| 37> C -1.7273 0.5236 7.6902
| 38> C -1.7483 1.3273 8.8267
| 39> C -1.5025 2.6953 8.7216
| 40> C -1.2445 3.2641 7.4783
| 41> H 1.9662 3.3323 1.8205
| 42> H 1.955 2.087 -0.1173
| 43> H 1.4981 -0.3015 -0.0235
| 44> H 0.9681 -1.2847 2.0528
| 45> H 1.017 0.0557 3.9437
| 46> H -1.4225 0.5635 5.6775
| 47> H -1.9294 -0.422 7.7385
| 48> H -1.9462 0.967 9.7197
| 49> H -1.5126 3.2186 9.4699
| 50> H -1.0649 4.2181 7.3995
| 51> H 1.0841 5.679 7.2751
| 52> H 2.4427 5.2175 9.1027
| 53> H 3.7242 3.2557 9.2036
| 54> H 3.5483 1.76 7.3467
| 55> H 0.2563 5.3427 1.6657
| 56> H -1.1109 4.9624 -0.2463
| 57> H -2.8971 3.4899 -0.0469
| 58> H -3.2227 2.3096 2.0176
| 59> *
| 60> 
| 61>                          ****END OF INPUT****
================================================================================

                       *****************************
                       * Geometry Optimization Run *
                       *****************************

Geometry optimization settings:
Update method            Update   .... BFGS
Choice of coordinates    CoordSys .... (2022) Redundant Internals
Initial Hessian          InHess   .... Almloef's Model
Max. no of cycles        MaxIter  .... 147

Convergence Tolerances:
Energy Change            TolE     ....  5.0000e-06 Eh
Max. Gradient            TolMAXG  ....  3.0000e-04 Eh/bohr
RMS Gradient             TolRMSG  ....  1.0000e-04 Eh/bohr
Max. Displacement        TolMAXD  ....  4.0000e-03 bohr
RMS Displacement         TolRMSD  ....  2.0000e-03 bohr
Strict Convergence                .... False

------------------------------------------------------------------------------
                        ORCA OPTIMIZATION COORDINATE SETUP
------------------------------------------------------------------------------

The optimization will be done in redundant internal coordinates (2022)
Making redundant internal coordinates   ...  (2022 redundants) done
Evaluating the initial hessian          ...  (Almloef) done
Evaluating the coordinates              ...  done
Calculating the B-matrix                .... done
Calculating the G-matrix                .... done
Diagonalizing the G-matrix              .... done
Small eigenvalue found = 3.066e-03
Small eigenvalue found = 5.649e-03
Small eigenvalue found = 6.677e-03
Small eigenvalue found = 1.406e-02
Small eigenvalue found = 1.838e-02
The first mode is                       ....  148
The number of degrees of freedom        ....  141

    -----------------------------------------------------------------
                    Redundant Internal Coordinates


    -----------------------------------------------------------------
         Definition                    Initial Value    Approx d2E/dq
    -----------------------------------------------------------------
      1. B(Cl  1,Cr  0)                  2.3257         0.456128   
      2. B(Cl  2,Cr  0)                  2.3190         0.467466   
      3. B(N   3,Cr  0)                  2.0444         0.511620   
      4. B(C   4,N   3)                  1.3398         0.672869   
      5. B(C   5,C   4)                  1.3858         0.634550   
      6. B(C   6,C   5)                  1.3909         0.622803   
      7. B(C   7,C   6)                  1.3850         0.636474   
      8. B(C   8,C   7)                  1.3873         0.631090   
      9. B(C   8,N   3)                  1.3589         0.627397   
     10. B(N   9,C   8)                  1.3974         0.544630   
     11. B(N  10,N   9)                  1.2825         0.743876   
     12. B(N  10,Cr  0)                  2.0300         0.539508   
     13. B(C  11,N  10)                  1.4373         0.470319   
     14. B(C  12,C  11)                  1.3898         0.625259   
     15. B(C  13,C  12)                  1.3918         0.620627   
     16. B(C  14,C  13)                  1.3860         0.634134   
     17. B(C  15,C  14)                  1.3847         0.637193   
     18. B(C  16,C  15)                  1.3895         0.626014   
     19. B(C  16,C  11)                  1.3921         0.620015   
     20. B(N  17,Cr  0)                  2.0274         0.544548   
     21. B(C  18,N  17)                  1.3508         0.646331   
     22. B(C  19,C  18)                  1.3800         0.648072   
     23. B(C  20,C  19)                  1.3956         0.612127   
     24. B(C  21,C  20)                  1.3753         0.659444   
     25. B(C  22,C  21)                  1.4026         0.596444   
     26. B(C  22,N  17)                  1.3609         0.622721   
     27. B(N  23,C  22)                  1.3742         0.592998   
     28. B(N  24,N  23)                  1.3141         0.662262   
     29. B(N  24,Cr  0)                  1.9902         0.624246   
     30. B(C  25,N  24)                  1.4296         0.483775   
     31. B(C  26,C  25)                  1.3978         0.607171   
     32. B(C  27,C  26)                  1.3862         0.633683   
     33. B(C  28,C  27)                  1.3921         0.619942   
     34. B(C  29,C  28)                  1.3939         0.615965   
     35. B(C  30,C  29)                  1.3914         0.621675   
     36. B(C  30,C  25)                  1.3926         0.618802   
     37. B(H  31,C  12)                  0.9633         0.573473   
     38. B(H  32,C  13)                  0.9455         0.612287   
     39. B(H  33,C  14)                  0.9568         0.587296   
     40. B(H  34,C  15)                  0.9840         0.531634   
     41. B(H  35,C  16)                  0.9052         0.710106   
     42. B(H  36,C  26)                  0.9298         0.648711   
     43. B(H  37,C  27)                  0.9682         0.563389   
     44. B(H  38,C  28)                  0.9831         0.533360   
     45. B(H  39,C  29)                  0.9132         0.689490   
     46. B(H  40,C  30)                  0.9740         0.551532   
     47. B(H  41,C   4)                  0.9422         0.619763   
     48. B(H  42,C   5)                  0.9092         0.699531   
     49. B(H  43,C   6)                  0.9736         0.552341   
     50. B(H  44,C   7)                  0.9475         0.607824   
     51. B(H  45,C  18)                  0.9334         0.640196   
     52. B(H  46,C  19)                  0.9425         0.619164   
     53. B(H  47,C  20)                  0.9388         0.627541   
     54. B(H  48,C  21)                  0.9606         0.579271   
     55. A(Cl  2,Cr  0,N  24)          170.2481         0.536711   
     56. A(Cl  1,Cr  0,N   3)           94.6379         0.514625   
     57. A(N   3,Cr  0,N  10)           75.7882         0.511062   
     58. A(Cl  2,Cr  0,N   3)           90.1766         0.516997   
     59. A(N  10,Cr  0,N  17)           94.8811         0.517063   
     60. A(Cl  2,Cr  0,N  17)           96.5170         0.523082   
     61. A(Cl  1,Cr  0,N  17)           94.4689         0.520676   
     62. A(N  10,Cr  0,N  24)           84.7758         0.530503   
     63. A(Cl  1,Cr  0,N  24)           95.0652         0.534230   
     64. A(N   3,Cr  0,N  24)           95.5877         0.525231   
     65. A(Cl  1,Cr  0,Cl  2)           92.2933         0.525826   
     66. A(Cl  2,Cr  0,N  10)           89.0402         0.522169   
     67. A(Cl  1,Cr  0,N  10)          170.3433         0.519769   
     68. A(N   3,Cr  0,N  17)          168.4656         0.511951   
     69. A(N  17,Cr  0,N  24)           76.5592         0.531433   
     70. A(Cr  0,N   3,C   4)          128.0484         0.472254   
     71. A(C   4,N   3,C   8)          118.1568         0.435685   
     72. A(Cr  0,N   3,C   8)          113.7630         0.466232   
     73. A(C   5,C   4,H  41)          120.4667         0.388989   
     74. A(N   3,C   4,C   5)          122.2526         0.439459   
     75. A(N   3,C   4,H  41)          117.2738         0.390495   
     76. A(C   6,C   5,H  42)          120.2889         0.396022   
     77. A(C   4,C   5,H  42)          120.3731         0.397323   
     78. A(C   4,C   5,C   6)          119.3286         0.436237   
     79. A(C   5,C   6,C   7)          119.0573         0.436475   
     80. A(C   7,C   6,H  43)          120.3044         0.381470   
     81. A(C   5,C   6,H  43)          120.5805         0.380036   
     82. A(C   8,C   7,H  44)          118.7227         0.387302   
     83. A(C   6,C   7,H  44)          122.8588         0.387876   
     84. A(C   6,C   7,C   8)          118.4177         0.437516   
     85. A(C   7,C   8,N   9)          119.5152         0.422669   
     86. A(N   3,C   8,N   9)          117.6370         0.419484   
     87. A(N   3,C   8,C   7)          122.7831         0.433526   
     88. A(C   8,N   9,N  10)          111.6331         0.429588   
     89. A(Cr  0,N  10,N   9)          120.5900         0.482463   
     90. A(N   9,N  10,C  11)          113.4065         0.418466   
     91. A(Cr  0,N  10,C  11)          125.7212         0.446684   
     92. A(C  12,C  11,C  16)          121.4147         0.434728   
     93. A(N  10,C  11,C  16)          120.6477         0.410481   
     94. A(N  10,C  11,C  12)          117.9352         0.411095   
     95. A(C  11,C  12,H  31)          120.1741         0.382782   
     96. A(C  11,C  12,C  13)          118.9244         0.434805   
     97. A(C  13,C  12,H  31)          120.8691         0.382288   
     98. A(C  14,C  13,H  32)          123.6345         0.388122   
     99. A(C  12,C  13,H  32)          116.1584         0.386667   
    100. A(C  12,C  13,C  14)          120.1670         0.435910   
    101. A(C  13,C  14,C  15)          120.2889         0.437985   
    102. A(C  15,C  14,H  33)          116.5377         0.385636   
    103. A(C  13,C  14,H  33)          123.1684         0.385314   
    104. A(C  14,C  15,C  16)          120.4921         0.436968   
    105. A(C  16,C  15,H  34)          115.8572         0.377866   
    106. A(C  14,C  15,H  34)          123.6455         0.379026   
    107. A(C  11,C  16,C  15)          118.6912         0.434823   
    108. A(C  15,C  16,H  35)          123.2354         0.397425   
    109. A(C  11,C  16,H  35)          118.0698         0.396754   
    110. A(C  18,N  17,C  22)          118.2520         0.431961   
    111. A(Cr  0,N  17,C  22)          113.1806         0.470948   
    112. A(Cr  0,N  17,C  18)          128.5429         0.474178   
    113. A(N  17,C  18,H  45)          113.5338         0.389963   
    114. A(C  19,C  18,H  45)          123.9813         0.392645   
    115. A(N  17,C  18,C  19)          122.4584         0.437943   
    116. A(C  20,C  19,H  46)          120.3436         0.386491   
    117. A(C  18,C  19,H  46)          120.5467         0.390358   
    118. A(C  18,C  19,C  20)          119.1055         0.436535   
    119. A(C  19,C  20,H  47)          118.5556         0.387397   
    120. A(C  21,C  20,H  47)          121.5504         0.392469   
    121. A(C  19,C  20,C  21)          119.4729         0.437906   
    122. A(C  22,C  21,H  48)          117.2856         0.380324   
    123. A(C  20,C  21,H  48)          123.7413         0.387020   
    124. A(C  20,C  21,C  22)          118.7107         0.435863   
    125. A(C  21,C  22,N  23)          119.7751         0.424838   
    126. A(N  17,C  22,N  23)          118.2125         0.425340   
    127. A(N  17,C  22,C  21)          121.9972         0.428576   
    128. A(C  22,N  23,N  24)          110.9752         0.427197   
    129. A(N  23,N  24,C  25)          112.2118         0.411968   
    130. A(Cr  0,N  24,C  25)          126.9938         0.461060   
    131. A(Cr  0,N  24,N  23)          120.2473         0.485115   
    132. A(C  26,C  25,C  30)          120.6058         0.432286   
    133. A(N  24,C  25,C  30)          118.9342         0.412397   
    134. A(N  24,C  25,C  26)          120.4530         0.411011   
    135. A(C  25,C  26,C  27)          119.5557         0.434138   
    136. A(C  27,C  26,H  36)          121.8327         0.392011   
    137. A(C  25,C  26,H  36)          118.5820         0.389094   
    138. A(C  26,C  27,C  28)          120.1353         0.435768   
    139. A(C  28,C  27,H  37)          121.3315         0.381040   
    140. A(C  26,C  27,H  37)          118.4663         0.382492   
    141. A(C  27,C  28,C  29)          120.1580         0.433549   
    142. A(C  29,C  28,H  38)          117.6257         0.377022   
    143. A(C  27,C  28,H  38)          122.2102         0.377441   
    144. A(C  28,C  29,C  30)          120.0857         0.433767   
    145. A(C  30,C  29,H  39)          120.0016         0.394893   
    146. A(C  28,C  29,H  39)          119.9125         0.394255   
    147. A(C  25,C  30,C  29)          119.4374         0.434126   
    148. A(C  29,C  30,H  40)          120.4592         0.379821   
    149. A(C  25,C  30,H  40)          120.1032         0.379516   
    150. D(C   4,N   3,Cr  0,Cl  2)     85.0188         0.002876   
    151. D(C   8,N   3,Cr  0,Cl  1)    174.8140         0.002876   
    152. D(C   8,N   3,Cr  0,Cl  2)    -92.8709         0.002876   
    153. D(C   4,N   3,Cr  0,N  24)   -102.8593         0.002876   
    154. D(C   4,N   3,Cr  0,N  17)   -149.3394         0.002876   
    155. D(C   4,N   3,Cr  0,N  10)    173.9840         0.002876   
    156. D(C   4,N   3,Cr  0,Cl  1)     -7.2964         0.002876   
    157. D(C   5,C   4,N   3,C   8)     -0.3440         0.037180   
    158. D(H  41,C   4,N   3,Cr  0)      2.7923         0.037180   
    159. D(C   5,C   4,N   3,Cr  0)   -178.1532         0.037180   
    160. D(H  41,C   4,N   3,C   8)   -179.3985         0.037180   
    161. D(H  42,C   5,C   4,H  41)     -1.7837         0.027944   
    162. D(H  42,C   5,C   4,N   3)    179.1913         0.027944   
    163. D(C   6,C   5,C   4,H  41)    179.3303         0.027944   
    164. D(C   6,C   5,C   4,N   3)      0.3053         0.027944   
    165. D(H  43,C   6,C   5,C   4)    177.4515         0.026855   
    166. D(C   7,C   6,C   5,C   4)      0.2061         0.026855   
    167. D(H  43,C   6,C   5,H  42)     -1.4355         0.026855   
    168. D(C   7,C   6,C   5,H  42)   -178.6810         0.026855   
    169. D(H  44,C   7,C   6,H  43)      1.7794         0.028125   
    170. D(C   8,C   7,C   6,H  43)   -177.8967         0.028125   
    171. D(C   8,C   7,C   6,C   5)     -0.6434         0.028125   
    172. D(H  44,C   7,C   6,C   5)    179.0326         0.028125   
    173. D(N   9,C   8,C   7,H  44)     -2.0610         0.027621   
    174. D(N   3,C   8,C   7,H  44)   -179.0651         0.027621   
    175. D(N   9,C   8,N   3,C   4)   -177.1862         0.031934   
    176. D(N   9,C   8,N   3,Cr  0)      0.9289         0.031934   
    177. D(N   3,C   8,C   7,C   6)      0.6246         0.027621   
    178. D(C   7,C   8,N   3,Cr  0)    177.9861         0.031934   
    179. D(N   9,C   8,C   7,C   6)    177.6287         0.027621   
    180. D(C   7,C   8,N   3,C   4)     -0.1290         0.031934   
    181. D(N  10,N   9,C   8,C   7)   -172.4296         0.021434   
    182. D(N  10,N   9,C   8,N   3)      4.7274         0.021434   
    183. D(C  11,N  10,N   9,C   8)    177.1692         0.049581   
    184. D(Cr  0,N  10,N   9,C   8)     -8.5937         0.049581   
    185. D(C  11,N  10,Cr  0,Cl  2)    -88.8555         0.003030   
    186. D(C  11,N  10,Cr  0,Cl  1)    173.0895         0.003030   
    187. D(N   9,N  10,Cr  0,N  24)    -89.8876         0.003030   
    188. D(N   9,N  10,Cr  0,N  17)   -165.8790         0.003030   
    189. D(N   9,N  10,Cr  0,N   3)      7.2365         0.003030   
    190. D(N   9,N  10,Cr  0,Cl  1)     -0.3933         0.003030   
    191. D(N   9,N  10,Cr  0,Cl  2)     97.6618         0.003030   
    192. D(C  16,C  11,N  10,N   9)     48.1075         0.017436   
    193. D(C  16,C  11,N  10,Cr  0)   -125.7808         0.017436   
    194. D(C  12,C  11,N  10,N   9)   -131.3378         0.017436   
    195. D(C  12,C  11,N  10,Cr  0)     54.7739         0.017436   
    196. D(H  31,C  12,C  11,N  10)      0.2976         0.027081   
    197. D(C  13,C  12,C  11,C  16)     -1.1970         0.027081   
    198. D(H  31,C  12,C  11,C  16)   -179.1433         0.027081   
    199. D(C  13,C  12,C  11,N  10)    178.2439         0.027081   
    200. D(H  32,C  13,C  12,H  31)     -3.1033         0.026656   
    201. D(H  32,C  13,C  12,C  11)    178.9652         0.026656   
    202. D(C  14,C  13,C  12,H  31)    179.1184         0.026656   
    203. D(C  14,C  13,C  12,C  11)      1.1869         0.026656   
    204. D(H  33,C  14,C  13,H  32)      3.2357         0.027905   
    205. D(H  33,C  14,C  13,C  12)   -179.1595         0.027905   
    206. D(C  15,C  14,C  13,H  32)   -177.6053         0.027905   
    207. D(C  15,C  14,C  13,C  12)     -0.0005         0.027905   
    208. D(H  34,C  15,C  14,H  33)     -1.1327         0.028193   
    209. D(H  34,C  15,C  14,C  13)    179.6541         0.028193   
    210. D(C  16,C  15,C  14,H  33)    177.9967         0.028193   
    211. D(C  16,C  15,C  14,C  13)     -1.2164         0.028193   
    212. D(C  15,C  16,C  11,N  10)   -179.4155         0.026601   
    213. D(H  35,C  16,C  15,H  34)      1.1004         0.027150   
    214. D(H  35,C  16,C  15,C  14)   -178.0943         0.027150   
    215. D(C  11,C  16,C  15,H  34)   -179.6030         0.027150   
    216. D(C  11,C  16,C  15,C  14)      1.2023         0.027150   
    217. D(H  35,C  16,C  11,C  12)    179.3436         0.026601   
    218. D(H  35,C  16,C  11,N  10)     -0.0822         0.026601   
    219. D(C  15,C  16,C  11,C  12)      0.0104         0.026601   
    220. D(C  22,N  17,Cr  0,Cl  2)    166.9191         0.003059   
    221. D(C  22,N  17,Cr  0,Cl  1)   -100.2536         0.003059   
    222. D(C  18,N  17,Cr  0,N  24)    175.7512         0.003059   
    223. D(C  18,N  17,Cr  0,N  10)   -100.8159         0.003059   
    224. D(C  18,N  17,Cr  0,N   3)   -136.3456         0.003059   
    225. D(C  18,N  17,Cr  0,Cl  2)    -11.2265         0.003059   
    226. D(C  18,N  17,Cr  0,Cl  1)     81.6008         0.003059   
    227. D(H  45,C  18,N  17,C  22)   -178.2522         0.034059   
    228. D(H  45,C  18,N  17,Cr  0)     -0.1875         0.034059   
    229. D(C  19,C  18,N  17,C  22)     -0.0574         0.034059   
    230. D(C  19,C  18,N  17,Cr  0)    178.0072         0.034059   
    231. D(H  46,C  19,C  18,H  45)     -1.3344         0.029231   
    232. D(H  46,C  19,C  18,N  17)   -179.3384         0.029231   
    233. D(C  20,C  19,C  18,H  45)    177.9178         0.029231   
    234. D(C  20,C  19,C  18,N  17)     -0.0862         0.029231   
    235. D(H  47,C  20,C  19,H  46)     -8.2516         0.025889   
    236. D(H  47,C  20,C  19,C  18)    172.4946         0.025889   
    237. D(C  21,C  20,C  19,H  46)    179.0778         0.025889   
    238. D(C  21,C  20,C  19,C  18)     -0.1759         0.025889   
    239. D(H  48,C  21,C  20,H  47)      2.0634         0.030341   
    240. D(H  48,C  21,C  20,C  19)    174.5075         0.030341   
    241. D(C  22,C  21,C  20,H  47)   -171.8835         0.030341   
    242. D(C  22,C  21,C  20,C  19)      0.5606         0.030341   
    243. D(N  23,C  22,C  21,H  48)      3.4932         0.024509   
    244. D(N  23,C  22,C  21,C  20)    177.8309         0.024509   
    245. D(N  17,C  22,C  21,H  48)   -175.0618         0.024509   
    246. D(N  17,C  22,C  21,C  20)     -0.7241         0.024509   
    247. D(N  23,C  22,N  17,C  18)   -178.1096         0.031422   
    248. D(N  23,C  22,N  17,Cr  0)      3.5369         0.031422   
    249. D(C  21,C  22,N  17,C  18)      0.4671         0.031422   
    250. D(C  21,C  22,N  17,Cr  0)   -177.8864         0.031422   
    251. D(N  24,N  23,C  22,C  21)   -175.3422         0.025644   
    252. D(N  24,N  23,C  22,N  17)      3.2672         0.025644   
    253. D(C  25,N  24,N  23,C  22)    178.7570         0.038283   
    254. D(C  25,N  24,Cr  0,Cl  2)    134.1382         0.003551   
    255. D(C  25,N  24,Cr  0,Cl  1)    -87.0206         0.003551   
    256. D(N  23,N  24,Cr  0,N  17)      8.7557         0.003551   
    257. D(N  23,N  24,Cr  0,N  10)    -87.5424         0.003551   
    258. D(N  23,N  24,Cr  0,N   3)   -162.6708         0.003551   
    259. D(Cr  0,N  24,N  23,C  22)     -9.1478         0.038283   
    260. D(N  23,N  24,Cr  0,Cl  2)    -36.6891         0.003551   
    261. D(N  23,N  24,Cr  0,Cl  1)    102.1521         0.003551   
    262. D(C  30,C  25,N  24,N  23)   -137.2972         0.018469   
    263. D(C  30,C  25,N  24,Cr  0)     51.2572         0.018469   
    264. D(C  26,C  25,N  24,N  23)     41.7502         0.018469   
    265. D(C  26,C  25,N  24,Cr  0)   -129.6954         0.018469   
    266. D(H  36,C  26,C  25,C  30)   -176.5239         0.025448   
    267. D(H  36,C  26,C  25,N  24)      4.4447         0.025448   
    268. D(C  27,C  26,C  25,C  30)      1.5375         0.025448   
    269. D(C  27,C  26,C  25,N  24)   -177.4938         0.025448   
    270. D(H  37,C  27,C  26,H  36)     -5.3148         0.027863   
    271. D(H  37,C  27,C  26,C  25)    176.6889         0.027863   
    272. D(C  28,C  27,C  26,H  36)    177.6179         0.027863   
    273. D(C  28,C  27,C  26,C  25)     -0.3784         0.027863   
    274. D(H  38,C  28,C  27,C  26)    178.4664         0.026594   
    275. D(C  29,C  28,C  27,H  37)   -177.5924         0.026594   
    276. D(C  29,C  28,C  27,C  26)     -0.6108         0.026594   
    277. D(H  38,C  28,C  27,H  37)      1.4847         0.026594   
    278. D(H  39,C  29,C  28,H  38)      1.2151         0.026234   
    279. D(H  39,C  29,C  28,C  27)   -179.6662         0.026234   
    280. D(C  30,C  29,C  28,H  38)   -178.6632         0.026234   
    281. D(C  30,C  29,C  28,C  27)      0.4555         0.026234   
    282. D(H  40,C  30,C  29,H  39)      0.6204         0.026752   
    283. D(H  40,C  30,C  29,C  28)   -179.5013         0.026752   
    284. D(C  25,C  30,C  29,H  39)   -179.1903         0.026752   
    285. D(C  25,C  30,C  29,C  28)      0.6880         0.026752   
    286. D(H  40,C  30,C  25,C  26)    178.4995         0.026490   
    287. D(H  40,C  30,C  25,N  24)     -2.4547         0.026490   
    288. D(C  29,C  30,C  25,C  26)     -1.6892         0.026490   
    289. D(C  29,C  30,C  25,N  24)    177.3567         0.026490   
    -----------------------------------------------------------------

Number of atoms                         .... 49
Number of degrees of freedom            .... 289


         *************************************************************
         *                GEOMETRY OPTIMIZATION CYCLE   1            *
         *************************************************************
---------------------------------
CARTESIAN COORDINATES (ANGSTROEM)
---------------------------------
  Cr     0.442900    4.286700    4.547300
  Cl    -0.633100    6.222800    5.256100
  Cl     2.196600    5.488800    3.621500
  N      1.509800    4.048600    6.274900
  C      1.598600    4.890600    7.313300
  C      2.392900    4.622700    8.416800
  C      3.131900    3.445000    8.454500
  C      3.058100    2.570000    7.383500
  C      2.234700    2.900000    6.316900
  N      2.181000    2.058500    5.202600
  N      1.500300    2.579800    4.248800
  C      1.474200    1.773700    3.059100
  C      1.756700    2.392400    1.847100
  C      1.773500    1.623900    0.686800
  C      1.487500    0.269000    0.744600
  C      1.183300   -0.329500    1.955600
  C      1.185500    0.413700    3.129600
  N     -0.643800    4.116500    2.844200
  C     -0.466700    4.752400    1.665700
  C     -1.264400    4.509800    0.566000
  C     -2.293400    3.572500    0.667300
  C     -2.489400    2.908600    1.855700
  C     -1.650200    3.205400    2.939700
  N     -1.854800    2.587900    4.150200
  N     -1.038900    3.062800    5.064400
  C     -1.248700    2.458000    6.342700
  C     -1.474300    1.082500    6.447200
  C     -1.727300    0.523600    7.690200
  C     -1.748300    1.327300    8.826700
  C     -1.502500    2.695300    8.721600
  C     -1.244500    3.264100    7.478300
  H      1.966200    3.332300    1.820500
  H      1.955000    2.087000   -0.117300
  H      1.498100   -0.301500   -0.023500
  H      0.968100   -1.284700    2.052800
  H      1.017000    0.055700    3.943700
  H     -1.422500    0.563500    5.677500
  H     -1.929400   -0.422000    7.738500
  H     -1.946200    0.967000    9.719700
  H     -1.512600    3.218600    9.469900
  H     -1.064900    4.218100    7.399500
  H      1.084100    5.679000    7.275100
  H      2.442700    5.217500    9.102700
  H      3.724200    3.255700    9.203600
  H      3.548300    1.760000    7.346700
  H      0.256300    5.342700    1.665700
  H     -1.110900    4.962400   -0.246300
  H     -2.897100    3.489900   -0.046900
  H     -3.222700    2.309600    2.017600

----------------------------
CARTESIAN COORDINATES (A.U.)
----------------------------
  NO LB      ZA    FRAG     MASS         X           Y           Z
   0 Cr   24.0000    0    52.000    0.836960    8.100689    8.593152
   1 Cl   17.0000    0    35.453   -1.196386   11.759388    9.932590
   2 Cl   17.0000    0    35.453    4.150972   10.372329    6.843643
   3 N     7.0000    0    14.007    2.853109    7.650745   11.857843
   4 C     6.0000    0    12.011    3.020916    9.241895   13.820134
   5 C     6.0000    0    12.011    4.521926    8.735637   15.905447
   6 C     6.0000    0    12.011    5.918433    6.510107   15.976690
   7 C     6.0000    0    12.011    5.778971    4.856596   13.952793
   8 C     6.0000    0    12.011    4.222971    5.480206   11.937211
   9 N     7.0000    0    14.007    4.121493    3.890001    9.831489
  10 N     7.0000    0    14.007    2.835156    4.875115    8.029068
  11 C     6.0000    0    12.011    2.785834    3.351807    5.780861
  12 C     6.0000    0    12.011    3.319682    4.520981    3.490513
  13 C     6.0000    0    12.011    3.351429    3.068726    1.297864
  14 C     6.0000    0    12.011    2.810968    0.508336    1.407090
  15 C     6.0000    0    12.011    2.236113   -0.622665    3.695548
  16 C     6.0000    0    12.011    2.240270    0.781780    5.914087
  17 N     7.0000    0    14.007   -1.216606    7.779058    5.374759
  18 C     6.0000    0    12.011   -0.881935    8.980734    3.147717
  19 C     6.0000    0    12.011   -2.389370    8.522287    1.069585
  20 C     6.0000    0    12.011   -4.333898    6.751047    1.261014
  21 C     6.0000    0    12.011   -4.704284    5.496457    3.506765
  22 C     6.0000    0    12.011   -3.118426    6.057328    5.555228
  23 N     7.0000    0    14.007   -3.505064    4.890422    7.842741
  24 N     7.0000    0    14.007   -1.963236    5.787853    9.570329
  25 C     6.0000    0    12.011   -2.359701    4.644947   11.985966
  26 C     6.0000    0    12.011   -2.786023    2.045629   12.183442
  27 C     6.0000    0    12.011   -3.264124    0.989461   14.532372
  28 C     6.0000    0    12.011   -3.303808    2.508233   16.680046
  29 C     6.0000    0    12.011   -2.839314    5.093379   16.481435
  30 C     6.0000    0    12.011   -2.351764    6.168255   14.131939
  31 H     1.0000    0     1.008    3.715580    6.297134    3.440246
  32 H     1.0000    0     1.008    3.694415    3.943858   -0.221665
  33 H     1.0000    0     1.008    2.830999   -0.569752   -0.044409
  34 H     1.0000    0     1.008    1.829444   -2.427731    3.879230
  35 H     1.0000    0     1.008    1.921851    0.105258    7.452513
  36 H     1.0000    0     1.008   -2.688135    1.064861   10.728920
  37 H     1.0000    0     1.008   -3.646038   -0.797464   14.623646
  38 H     1.0000    0     1.008   -3.677785    1.827365   18.367571
  39 H     1.0000    0     1.008   -2.858400    6.082273   17.895518
  40 H     1.0000    0     1.008   -2.012369    7.971054   13.983029
  41 H     1.0000    0     1.008    2.048652   10.731755   13.747947
  42 H     1.0000    0     1.008    4.616034    9.859646   17.201610
  43 H     1.0000    0     1.008    7.037718    6.152381   17.392283
  44 H     1.0000    0     1.008    6.705315    3.325918   13.883251
  45 H     1.0000    0     1.008    0.484337   10.096240    3.147717
  46 H     1.0000    0     1.008   -2.099297    9.377577   -0.465440
  47 H     1.0000    0     1.008   -5.474726    6.594955   -0.088628
  48 H     1.0000    0     1.008   -6.090020    4.364511    3.812711

--------------------------------
INTERNAL COORDINATES (ANGSTROEM)
--------------------------------
 Cr     0   0   0     0.000000000000     0.00000000     0.00000000
 Cl     1   0   0     2.325651876356     0.00000000     0.00000000
 Cl     1   2   0     2.318968249028    92.29327121     0.00000000
 N      1   2   3     2.044399417922    94.63791684    90.36342643
 C      4   1   2     1.339822376287   128.04838725   352.70362915
 C      5   4   1     1.385783226194   122.25264787   181.84675401
 C      6   5   4     1.390870080202   119.32856899     0.30527928
 C      7   6   5     1.384959364025   119.05730340     0.20605123
 C      4   1   2     1.358869371941   113.76301246   174.81398056
 N      9   4   1     1.397379844566   117.63699654     0.92890863
 N     10   9   4     1.282513399540   111.63306416     4.72741958
 C     11  10   9     1.437311556344   113.40647442   177.16919385
 C     12  11  10     1.389798524967   117.93521600   228.66216993
 C     13  12  11     1.391822754520   118.92435697   178.24388477
 C     14  13  12     1.385962066580   120.16695257     1.18690980
 C     15  14  13     1.384651902104   120.28887616     0.00000000
 C     16  15  14     1.389470071646   120.49205326   358.78361081
 N      1   2   3     2.027420661826    94.46894023   263.27724418
 C     18   1   2     1.350775877043   128.54293743    81.60083920
 C     19  18   1     1.380043528299   122.45840546   178.00723667
 C     20  19  18     1.395576576186   119.10551305   359.91383392
 C     21  20  19     1.375308609004   119.47290726   359.82407271
 C     18   1   2     1.360905735163   113.18061078   259.74636894
 N     23  18   1     1.374218927246   118.21252598     3.53693643
 N     24  23  18     1.314147807516   110.97515757     3.26718281
 C     25  24  23     1.429632809500   112.21181180   178.75700344
 C     26  25  24     1.397789633672   120.45304384    41.75019035
 C     27  26  25     1.386155550434   119.55573871   182.50623304
 C     28  27  26     1.392123177021   120.13534398   359.62160833
 C     29  28  27     1.393875048202   120.15801202   359.38920931
 C     30  29  28     1.391363478750   120.08573766     0.45546197
 H     13  12  11     0.963332663206   120.17409199     0.29764195
 H     14  13  12     0.945505510296   116.15841924   178.96520264
 H     15  14  13     0.956849110362   123.16841184   180.84046948
 H     16  15  14     0.983954226578   123.64548950   179.65414985
 H     17  16  15     0.905160239958   123.23542975   181.90572569
 H     27  26  25     0.929775419120   118.58203826     4.44474982
 H     28  27  26     0.968161484464   118.46630432   176.68890743
 H     29  28  27     0.983071462306   122.21019069   178.46635515
 H     30  29  28     0.913180042489   119.91251186   180.33383412
 H     31  30  29     0.973951538835   120.45919864   180.49866587
 H      5   4   1     0.942201703458   117.27379875     2.79226615
 H      6   5   4     0.909244681040   120.37307490   179.19132969
 H      7   6   5     0.973552561498   120.58053343   177.45150485
 H      8   7   6     0.947496849599   122.85883819   179.03264642
 H     19  18   1     0.933371892656   113.53378689   359.81248149
 H     20  19  18     0.942465012613   120.54666456   180.66163549
 H     21  20  19     0.938806737300   118.55562493   172.49461065
 H     22  21  20     0.960594347266   123.74131205   174.50754520

---------------------------
INTERNAL COORDINATES (A.U.)
---------------------------
 Cr     0   0   0     0.000000000000     0.00000000     0.00000000
 Cl     1   0   0     4.394845129154     0.00000000     0.00000000
 Cl     1   2   0     4.382214903922    92.29327121     0.00000000
 N      1   2   3     3.863355008221    94.63791684    90.36342643
 C      4   1   2     2.531897359282   128.04838725   352.70362915
 C      5   4   1     2.618750778488   122.25264787   181.84675401
 C      6   5   4     2.628363539446   119.32856899     0.30527928
 C      7   6   5     2.617193904617   119.05730340     0.20605123
 C      4   1   2     2.567890964743   113.76301246   174.81398056
 N      9   4   1     2.640665211292   117.63699654     0.92890863
 N     10   9   4     2.423599088215   111.63306416     4.72741958
 C     11  10   9     2.716125210610   113.40647442   177.16919385
 C     12  11  10     2.626338593515   117.93521600   228.66216993
 C     13  12  11     2.630163833003   118.92435697   178.24388477
 C     14  13  12     2.619088737841   120.16695257     1.18690980
 C     15  14  13     2.616612885790   120.28887616     0.00000000
 C     16  15  14     2.625717906691   120.49205326   358.78361081
 N      1   2   3     3.831269809105    94.46894023   263.27724418
 C     18   1   2     2.552596475918   128.54293743    81.60083920
 C     19  18   1     2.607904321376   122.45840546   178.00723667
 C     20  19  18     2.637257527908   119.10551305   359.91383392
 C     21  20  19     2.598956620641   119.47290726   359.82407271
 C     18   1   2     2.571739133541   113.18061078   259.74636894
 N     23  18   1     2.596897420545   118.21252598     3.53693643
 N     24  23  18     2.483379455699   110.97515757     3.26718281
 C     25  24  23     2.701614482024   112.21181180   178.75700344
 C     26  25  24     2.641439600474   120.45304384    41.75019035
 C     27  26  25     2.619454369336   119.55573871   182.50623304
 C     28  27  26     2.630731549255   120.13534398   359.62160833
 C     29  28  27     2.634042106008   120.15801202   359.38920931
 C     30  29  28     2.629295927578   120.08573766     0.45546197
 H     13  12  11     1.820434909321   120.17409199     0.29764195
 H     14  13  12     1.786746472573   116.15841924   178.96520264
 H     15  14  13     1.808182770070   123.16841184   180.84046948
 H     16  15  14     1.859404016546   123.64548950   179.65414985
 H     17  16  15     1.710504960834   123.23542975   181.90572569
 H     27  26  25     1.757020908189   118.58203826     4.44474982
 H     28  27  26     1.829560059048   118.46630432   176.68890743
 H     29  28  27     1.857735833831   122.21019069   178.46635515
 H     30  29  28     1.725660191267   119.91251186   180.33383412
 H     31  30  29     1.840501676110   120.45919864   180.49866587
 H      5   4   1     1.780503182451   117.27379875     2.79226615
 H      6   5   4     1.718223435891   120.37307490   179.19132969
 H      7   6   5     1.839747718209   120.58053343   177.45150485
 H      8   7   6     1.790509558495   122.85883819   179.03264642
 H     19  18   1     1.763817258219   113.53378689   359.81248149
 H     20  19  18     1.781000764642   120.54666456   180.66163549
 H     21  20  19     1.774087626177   118.55562493   172.49461065
 H     22  21  20     1.815260242126   123.74131205   174.50754520

---------------------
BASIS SET INFORMATION
---------------------
There are 5 groups of distinct atoms

 Group   1 Type Cr  : 17s11p7d1f contracted to 6s4p4d1f pattern {842111/6311/4111/1}
 Group   2 Type Cl  : 14s9p3d1f contracted to 5s5p2d1f pattern {73211/51111/21/1}
 Group   3 Type N   : 11s6p2d1f contracted to 5s3p2d1f pattern {62111/411/11/1}
 Group   4 Type C   : 11s6p2d1f contracted to 5s3p2d1f pattern {62111/411/11/1}
 Group   5 Type H   : 5s1p contracted to 3s1p pattern {311/1}

Atom   0Cr   basis set group =>   1
Atom   1Cl   basis set group =>   2
Atom   2Cl   basis set group =>   2
Atom   3N    basis set group =>   3
Atom   4C    basis set group =>   4
Atom   5C    basis set group =>   4
Atom   6C    basis set group =>   4
Atom   7C    basis set group =>   4
Atom   8C    basis set group =>   4
Atom   9N    basis set group =>   3
Atom  10N    basis set group =>   3
Atom  11C    basis set group =>   4
Atom  12C    basis set group =>   4
Atom  13C    basis set group =>   4
Atom  14C    basis set group =>   4
Atom  15C    basis set group =>   4
Atom  16C    basis set group =>   4
Atom  17N    basis set group =>   3
Atom  18C    basis set group =>   4
Atom  19C    basis set group =>   4
Atom  20C    basis set group =>   4
Atom  21C    basis set group =>   4
Atom  22C    basis set group =>   4
Atom  23N    basis set group =>   3
Atom  24N    basis set group =>   3
Atom  25C    basis set group =>   4
Atom  26C    basis set group =>   4
Atom  27C    basis set group =>   4
Atom  28C    basis set group =>   4
Atom  29C    basis set group =>   4
Atom  30C    basis set group =>   4
Atom  31H    basis set group =>   5
Atom  32H    basis set group =>   5
Atom  33H    basis set group =>   5
Atom  34H    basis set group =>   5
Atom  35H    basis set group =>   5
Atom  36H    basis set group =>   5
Atom  37H    basis set group =>   5
Atom  38H    basis set group =>   5
Atom  39H    basis set group =>   5
Atom  40H    basis set group =>   5
Atom  41H    basis set group =>   5
Atom  42H    basis set group =>   5
Atom  43H    basis set group =>   5
Atom  44H    basis set group =>   5
Atom  45H    basis set group =>   5
Atom  46H    basis set group =>   5
Atom  47H    basis set group =>   5
Atom  48H    basis set group =>   5
---------------------------------
AUXILIARY/J BASIS SET INFORMATION
---------------------------------
There are 5 groups of distinct atoms

 Group   1 Type Cr  : 19s5p5d3f3g contracted to 8s5p5d2f3g pattern {121111111/11111/11111/21/111}
 Group   2 Type Cl  : 14s5p5d2f1g contracted to 8s4p3d1f1g pattern {71111111/2111/311/2/1}
 Group   3 Type N   : 12s5p4d2f1g contracted to 6s4p3d1f1g pattern {711111/2111/211/2/1}
 Group   4 Type C   : 12s5p4d2f1g contracted to 6s4p3d1f1g pattern {711111/2111/211/2/1}
 Group   5 Type H   : 5s2p1d contracted to 3s1p1d pattern {311/2/1}

Atom   0Cr   basis set group =>   1
Atom   1Cl   basis set group =>   2
Atom   2Cl   basis set group =>   2
Atom   3N    basis set group =>   3
Atom   4C    basis set group =>   4
Atom   5C    basis set group =>   4
Atom   6C    basis set group =>   4
Atom   7C    basis set group =>   4
Atom   8C    basis set group =>   4
Atom   9N    basis set group =>   3
Atom  10N    basis set group =>   3
Atom  11C    basis set group =>   4
Atom  12C    basis set group =>   4
Atom  13C    basis set group =>   4
Atom  14C    basis set group =>   4
Atom  15C    basis set group =>   4
Atom  16C    basis set group =>   4
Atom  17N    basis set group =>   3
Atom  18C    basis set group =>   4
Atom  19C    basis set group =>   4
Atom  20C    basis set group =>   4
Atom  21C    basis set group =>   4
Atom  22C    basis set group =>   4
Atom  23N    basis set group =>   3
Atom  24N    basis set group =>   3
Atom  25C    basis set group =>   4
Atom  26C    basis set group =>   4
Atom  27C    basis set group =>   4
Atom  28C    basis set group =>   4
Atom  29C    basis set group =>   4
Atom  30C    basis set group =>   4
Atom  31H    basis set group =>   5
Atom  32H    basis set group =>   5
Atom  33H    basis set group =>   5
Atom  34H    basis set group =>   5
Atom  35H    basis set group =>   5
Atom  36H    basis set group =>   5
Atom  37H    basis set group =>   5
Atom  38H    basis set group =>   5
Atom  39H    basis set group =>   5
Atom  40H    basis set group =>   5
Atom  41H    basis set group =>   5
Atom  42H    basis set group =>   5
Atom  43H    basis set group =>   5
Atom  44H    basis set group =>   5
Atom  45H    basis set group =>   5
Atom  46H    basis set group =>   5
Atom  47H    basis set group =>   5
Atom  48H    basis set group =>   5


           ************************************************************
           *        Program running with 16 parallel MPI-processes    *
           *              working on a common directory               *
           ************************************************************
------------------------------------------------------------------------------
                             ORCA STARTUP CALCULATIONS
                           -- RI-GTO INTEGRALS CHOSEN --
------------------------------------------------------------------------------
------------------------------------------------------------------------------
                   ___                                                        
                  /   \      - P O W E R E D   B Y -                         
                 /     \                                                     
                 |  |  |   _    _      __       _____    __    __             
                 |  |  |  | |  | |    /  \     |  _  \  |  |  /  |          
                  \  \/   | |  | |   /    \    | | | |  |  | /  /          
                 / \  \   | |__| |  /  /\  \   | |_| |  |  |/  /          
                |  |  |   |  __  | /  /__\  \  |    /   |      \           
                |  |  |   | |  | | |   __   |  |    \   |  |\   \          
                \     /   | |  | | |  |  |  |  | |\  \  |  | \   \       
                 \___/    |_|  |_| |__|  |__|  |_| \__\ |__|  \__/        
                                                                              
                      - O R C A' S   B I G   F R I E N D -                    
                                      &                                       
                       - I N T E G R A L  F E E D E R -                       
                                                                              
 v1 FN, 2020, v2 2021, v3 2022-2024                                           
------------------------------------------------------------------------------


----------------------
SHARK INTEGRAL PACKAGE
----------------------

Number of atoms                             ...     49
Number of basis functions                   ...   1095
Number of shells                            ...    421
Maximum angular momentum                    ...      3
Integral batch strategy                     ... SHARK/LIBINT Hybrid
RI-J (if used) integral strategy            ... SPLIT-RIJ (Revised 2003 algorithm where possible)
Printlevel                                  ...      1
Contraction scheme used                     ... SEGMENTED contraction
Prescreening option                         ... SCHWARTZ
   Thresh                                   ... 2.500e-11
   Tcut                                     ... 2.500e-12
   Tpresel                                  ... 2.500e-12 
Coulomb Range Separation                    ... NOT USED
Exchange Range Separation                   ... NOT USED
Multipole approximations                    ... NOT USED
Finite Nucleus Model                        ... NOT USED
CABS basis                                  ... NOT available
Auxiliary Coulomb fitting basis             ... AVAILABLE
   # of basis functions in Aux-J            ...   1761
   # of shells in Aux-J                     ...    567
   Maximum angular momentum in Aux-J        ...      4
Auxiliary J/K fitting basis                 ... NOT available
Auxiliary Correlation fitting basis         ... NOT available
Auxiliary 'external' fitting basis          ... NOT available

Checking pre-screening integrals            ... done (  0.0 sec) Dimension = 421
Check shell pair data                       ... done (  0.0 sec)
Shell pair information
Shell pair cut-off parameter TPreSel        ...   2.5e-12
Total number of shell pairs                 ...     88831
Shell pairs after pre-screening             ...     60808
Total number of primitive shell pairs       ...    288462
Primitive shell pairs kept                  ...    123700
          la=0 lb=0:  14333 shell pairs
          la=1 lb=0:  17303 shell pairs
          la=1 lb=1:   5250 shell pairs
          la=2 lb=0:   8957 shell pairs
          la=2 lb=1:   5515 shell pairs
          la=2 lb=2:   1501 shell pairs
          la=3 lb=0:   3876 shell pairs
          la=3 lb=1:   2473 shell pairs
          la=3 lb=2:   1305 shell pairs
          la=3 lb=3:    295 shell pairs

Calculating one electron integrals          ... done (  0.1 sec)
done (  0.2 sec)
Calculating Nuclear repulsion               ... done (  0.0 sec) ENN=   4167.353754071938 Eh

Diagonalization of the overlap matrix:
Smallest eigenvalue                        ... 6.239e-06
Time for diagonalization                   ...    0.141 sec
Threshold for overlap eigenvalues          ... 1.000e-07
Number of eigenvalues below threshold      ... 0
Time for construction of square roots      ...    0.153 sec
Total time needed                          ...    0.319 sec

-------------------
DFT GRID GENERATION
-------------------

General Integration Accuracy     IntAcc      ... 4.959
Radial Grid Type                 RadialGrid  ... OptM3 with GC (2021)
Angular Grid (max. ang.)         AngularGrid ... 6 (Lebedev-590)
Angular grid pruning method      GridPruning ... 4 (adaptive)
Weight generation scheme         WeightScheme... mBecke (2022)
Basis function cutoff            BFCut       ... 1.0000e-11
Integration weight cutoff        WCut        ... 1.0000e-14
Partially contracted basis set               ... off
Rotationally invariant grid construction     ... off
Angular grids for H and He will be reduced by one unit
Core-polarized basis detected: some atoms will have their core
                               angular grid increased.

Total number of grid points                  ...   604731
Total number of batches                      ...     9476
Average number of points per batch           ...       63
Average number of grid points per atom       ...    12341

--------------------
COSX GRID GENERATION
--------------------

GRIDX 1
-------
General Integration Accuracy     IntAcc      ... 4.020
Radial Grid Type                 RadialGrid  ... OptM3 with GC (2021)
Angular Grid (max. ang.)         AngularGrid ... 2 (Lebedev-110)
Angular grid pruning method      GridPruning ... 4 (adaptive)
Weight generation scheme         WeightScheme... mBecke (2022)
Basis function cutoff            BFCut       ... 1.0000e-11
Integration weight cutoff        WCut        ... 1.0000e-14
Partially contracted basis set               ... on
Rotationally invariant grid construction     ... off
Angular grids for H and He will be reduced by one unit
Core-polarized basis detected: some atoms will have their core
                               angular grid increased.

Total number of grid points                  ...    70492
Total number of batches                      ...      576
Average number of points per batch           ...      122
Average number of grid points per atom       ...     1439
UseSFitting                                  ... on

GRIDX 2
-------
General Integration Accuracy     IntAcc      ... 4.338
Radial Grid Type                 RadialGrid  ... OptM3 with GC (2021)
Angular Grid (max. ang.)         AngularGrid ... 3 (Lebedev-194)
Angular grid pruning method      GridPruning ... 4 (adaptive)
Weight generation scheme         WeightScheme... mBecke (2022)
Basis function cutoff            BFCut       ... 1.0000e-11
Integration weight cutoff        WCut        ... 1.0000e-14
Partially contracted basis set               ... on
Rotationally invariant grid construction     ... off
Angular grids for H and He will be reduced by one unit
Core-polarized basis detected: some atoms will have their core
                               angular grid increased.

Total number of grid points                  ...   149059
Total number of batches                      ...     1190
Average number of points per batch           ...      125
Average number of grid points per atom       ...     3042
UseSFitting                                  ... on

GRIDX 3
-------
General Integration Accuracy     IntAcc      ... 4.871
Radial Grid Type                 RadialGrid  ... OptM3 with GC (2021)
Angular Grid (max. ang.)         AngularGrid ... 4 (Lebedev-302)
Angular grid pruning method      GridPruning ... 4 (adaptive)
Weight generation scheme         WeightScheme... mBecke (2022)
Basis function cutoff            BFCut       ... 1.0000e-11
Integration weight cutoff        WCut        ... 1.0000e-14
Partially contracted basis set               ... on
Rotationally invariant grid construction     ... off
Angular grids for H and He will be reduced by one unit
Core-polarized basis detected: some atoms will have their core
                               angular grid increased.

Total number of grid points                  ...   274421
Total number of batches                      ...     2170
Average number of points per batch           ...      126
Average number of grid points per atom       ...     5600
UseSFitting                                  ... on
Initializing property integral containers    ... done (  0.0 sec)

SHARK setup successfully completed in  10.8 seconds

Maximum memory used throughout the entire STARTUP-calculation: 197.7 MB


           ************************************************************
           *        Program running with 16 parallel MPI-processes    *
           *              working on a common directory               *
           ************************************************************
-------------------------------------------------------------------------------
                                 ORCA GUESS
                   Start orbitals & Density for SCF / CASSCF
-------------------------------------------------------------------------------

------------
SCF SETTINGS
------------
Hamiltonian:
 Density Functional     Method          .... DFT(GTOs)
 Exchange Functional    Exchange        .... PBE
   PBE kappa parameter   XKappa         ....  0.804000
   PBE mue parameter    XMuePBE         ....  0.219520
 Correlation Functional Correlation     .... PBE
   PBE beta parameter  CBetaPBE         ....  0.066725
 LDA part of GGA corr.  LDAOpt          .... PW91-LDA
 Gradients option       PostSCFGGA      .... off
 Hybrid DFT is turned on
   Fraction HF Exchange ScalHFX         ....  0.250000
   Scaling of DF-GGA-X  ScalDFX         ....  0.750000
   Scaling of DF-GGA-C  ScalDFC         ....  1.000000
   Scaling of DF-LDA-C  ScalLDAC        ....  1.000000
   Perturbative correction              ....  0.000000
   NL short-range parameter             ....  6.900000
 RI-approximation to the Coulomb term is turned on
   Number of AuxJ basis functions       .... 1761
   RIJ-COSX (HFX calculated with COS-X)).... on


General Settings:
 Integral files         IntName         .... GENZII-S3
 Hartree-Fock type      HFTyp           .... UHF
 Total Charge           Charge          ....    0
 Multiplicity           Mult            ....    3
 Number of Electrons    NEL             ....  250
 Basis Dimension        Dim             .... 1095
 Nuclear Repulsion      ENuc            ....   4167.3537540719 Eh

Convergence Acceleration:
 AO-DIIS                CNVDIIS         .... on
   Start iteration      DIISMaxIt       ....    12
   Startup error        DIISStart       ....  0.200000
   # of expansion vecs  DIISMaxEq       ....     5
   Bias factor          DIISBfac        ....   1.050
   Max. coefficient     DIISMaxC        ....  10.000
 MO-DIIS                CNVKDIIS        .... off
 Trust-Rad. Augm. Hess. CNVTRAH         .... auto
   Auto Start mean grad. ratio tolernc. ....  1.125000
   Auto Start start iteration           ....    50
   Auto Start num. interpolation iter.  ....    10
   Max. Number of Micro iterations      ....    24
   Max. Number of Macro iterations      .... Maxiter - #DIIS iter
   Number of Davidson start vectors     ....     2
   Converg. threshold    (grad. norm)   ....   1.000e-05
   Grad. Scal. Fac. for Micro threshold ....   0.100
   Minimum threshold for Micro iter.    ....   1.000e-02
   NR start threshold (gradient norm)   ....   1.000e-04
   Initial trust radius                 ....   0.400
   Minimum AH scaling param. (alpha)    ....   1.000
   Maximum AH scaling param. (alpha)    .... 1000.000
   Quad. conv. algorithm                .... NR
   White noise on init. David. guess    .... on
   Maximum white noise                  ....   0.010
   Pseudo random numbers                .... off
   Inactive MOs                         .... canonical
   Orbital update algorithm             .... Taylor
   Preconditioner                       .... Diag
   Full preconditioner red. dimension   ....   250
 SOSCF                  CNVSOSCF        .... on
   Start iteration      SOSCFMaxIt      ....   150
   Startup grad/error   SOSCFStart      ....  0.003300
   Hessian update       SOSCFHessUp     .... L-BFGS
 Level Shifting         CNVShift        .... on
   Level shift para.    LevelShift      ....    0.2500
   Turn off err/grad.   ShiftErr        ....    0.0010
 Zerner damping         CNVZerner       .... off
 Static damping         CNVDamp         .... on
   Fraction old density DampFac         ....    0.7000
   Max. Damping (<1)    DampMax         ....    0.9800
   Min. Damping (>=0)   DampMin         ....    0.0000
   Turn off err/grad.   DampErr         ....    0.1000

SCF Procedure:
 Maximum # iterations   MaxIter         ....   125
 SCF integral mode      SCFMode         .... Direct
   Integral package                     .... SHARK and LIBINT hybrid scheme
 Reset frequency        DirectResetFreq ....    20
 Integral Threshold     Thresh          ....  2.500e-11 Eh
 Primitive CutOff       TCut            ....  2.500e-12 Eh

Convergence Tolerance:
 Convergence Check Mode ConvCheckMode   .... Total+1el-Energy
 Convergence forced     ConvForced      .... 0
 Energy Change          TolE            ....  1.000e-08 Eh
 1-El. energy change                    ....  1.000e-05 Eh
 Orbital Gradient       TolG            ....  1.000e-05
 Orbital Rotation angle TolX            ....  1.000e-05
 DIIS Error             TolErr          ....  5.000e-07

------------------------------
INITIAL GUESS: MODEL POTENTIAL
------------------------------
Loading Hartree-Fock densities                     ... done
Calculating cut-offs                               ... done
Initializing the effective Hamiltonian             ... done
Setting up the integral package (SHARK)            ... done
done (   0.4 sec)
Making the grid                                    ... done (   0.4 sec)
Mapping shells                                     ... done
Starting the XC term evaluation                    ... done (   0.2 sec)
  promolecular density results
     # of electrons  =    249.998968913
     EX              =   -259.646007284
     EC              =     -8.906293341
     EX+EC           =   -268.552300624
done (   0.1 sec)
done (   0.2 sec)
Back transforming the eigenvectors                 ... done (   0.1 sec)
done
                      ------------------
                      INITIAL GUESS DONE (   1.6 sec)
                      ------------------
             **** ENERGY FILE WAS UPDATED (GENZII-S3.en.tmp) ****
Finished Guess after   2.2 sec
Maximum memory used throughout the entire GUESS-calculation: 114.0 MB


           ************************************************************
           *        Program running with 16 parallel MPI-processes    *
           *              working on a common directory               *
           ************************************************************

-------------------------------------------------------------------------------------------
                                      ORCA LEAN-SCF
                              memory conserving SCF solver
-------------------------------------------------------------------------------------------

----------------------------------------D-I-I-S--------------------------------------------
Iteration    Energy (Eh)           Delta-E    RMSDP     MaxDP     DIISErr   Damp  Time(sec)
-------------------------------------------------------------------------------------------
               ***  Starting incremental Fock matrix formation  ***
    1    -3139.6071406984747227     0.00e+00  1.31e-03  6.42e-01  2.38e-01  0.700  31.0
Warning: op=0 Small HOMO/LUMO gap (  -1.223) - skipping pre-diagonalization
         LevelShift set to 1.000 Eh
         Will do a full diagonalization
    2    -3139.3399697099030163     2.67e-01  8.26e-04  2.70e-01  2.06e-01  0.700  17.2
                               ***Turning on AO-DIIS***
    3    -3139.9723377143163816    -6.32e-01  5.73e-04  1.77e-01  6.78e-02  0.700  15.6
    4    -3140.2396064658187242    -2.67e-01  1.23e-03  3.24e-01  2.40e-02  0.000  14.8
    5    -3140.4387520161044449    -1.99e-01  2.39e-04  5.84e-02  1.60e-01  0.000  15.5
    6    -3140.4870867677227579    -4.83e-02  6.84e-05  1.98e-02  1.54e-01  0.700  13.7
    7    -3140.5214496320522812    -3.44e-02  1.01e-04  2.69e-02  1.46e-01  0.700  12.0
    8    -3140.5684002895077356    -4.70e-02  1.17e-04  2.81e-02  1.34e-01  0.700  12.6
    9    -3140.6202711888854537    -5.19e-02  2.36e-04  6.48e-02  1.20e-01  0.700  12.9
   10    -3140.7218176474243592    -1.02e-01  2.11e-04  4.10e-02  8.16e-02  0.700  13.9
   11    -3140.7799763749026170    -5.82e-02  5.77e-04  6.11e-02  5.43e-02  0.000  14.4
   12    -3140.8591368619163404    -7.92e-02  1.05e-04  3.69e-02  2.99e-02  0.000  15.3
   13    -3140.8689520640928095    -9.82e-03  8.05e-05  2.75e-02  2.67e-02  0.000  13.3
   14    -3140.8781111602447709    -9.16e-03  7.07e-05  2.32e-02  2.33e-02  0.000  13.0
   15    -3140.8869227859677267    -8.81e-03  6.53e-05  1.98e-02  2.08e-02  0.000  12.9
   16    -3140.8954457369927695    -8.52e-03  6.04e-05  1.59e-02  1.82e-02  0.000  13.0
   17    -3140.9032506280072994    -7.80e-03  5.86e-05  1.60e-02  1.61e-02  0.000  13.2
   18    -3140.9104549981730088    -7.20e-03  4.94e-05  1.26e-02  1.34e-02  0.000  13.2
   19    -3140.9162595331026751    -5.80e-03  5.42e-05  1.49e-02  1.19e-02  0.000  12.9
   20    -3140.9216809757908777    -5.42e-03  4.05e-05  9.97e-03  9.43e-03  0.000  13.0
               *** Restarting incremental Fock matrix formation ***
                             ****Resetting DIIS****
Warning: op=0 Small HOMO/LUMO gap (   0.086) - skipping pre-diagonalization
         Will do a full diagonalization
   21    -3140.9257556645425211    -4.07e-03  2.35e-04  3.24e-02  8.30e-03  0.000  19.0
   22    -3140.9427694489222631    -1.70e-02  1.20e-04  3.00e-02  7.20e-03  0.000  14.4
   23    -3140.9474791873817594    -4.71e-03  6.67e-05  1.75e-02  1.33e-02  0.000  13.5
   24    -3140.9515274327677616    -4.05e-03  6.39e-05  1.78e-02  8.85e-03  0.000  12.4
   25    -3140.9544868069633594    -2.96e-03  9.16e-05  2.03e-02  6.73e-03  0.000  12.2
   26    -3140.9586157215890125    -4.13e-03  1.35e-04  2.92e-02  4.66e-03  0.000  12.7
                              *** Initializing SOSCF ***
---------------------------------------S-O-S-C-F--------------------------------------
Iteration    Energy (Eh)           Delta-E    RMSDP     MaxDP     MaxGrad    Time(sec)
--------------------------------------------------------------------------------------
   27    -3140.9621309960675717    -3.52e-03  7.00e-05  1.19e-02  1.89e-03    14.5
               *** Restarting incremental Fock matrix formation ***
   28    -3140.9625749363476643    -4.44e-04  5.29e-05  2.49e-03  9.40e-04    30.1
   29    -3140.9624819101836692     9.30e-05  1.86e-05  1.14e-03  2.69e-03    21.3
   30    -3140.9626408924686984    -1.59e-04  8.47e-06  2.37e-03  2.46e-04    20.2
   31    -3140.9626359998255793     4.89e-06  4.52e-06  1.68e-03  7.70e-04    18.4
   32    -3140.9626488574886025    -1.29e-05  5.38e-06  6.68e-04  1.90e-04    16.6
   33    -3140.9626460964800572     2.76e-06  3.21e-06  3.39e-04  2.44e-04    17.2
   34    -3140.9626514000419775    -5.30e-06  2.54e-06  2.51e-04  3.91e-05    16.0
   35    -3140.9626516612624982    -2.61e-07  3.24e-06  4.16e-04  3.38e-05    14.7
   36    -3140.9626519603489214    -2.99e-07  2.54e-06  2.53e-04  2.52e-05    15.1
   37    -3140.9626520134388556    -5.31e-08  2.06e-06  2.40e-04  1.53e-05    12.8
   38    -3140.9626519447911051     6.86e-08  1.43e-06  1.68e-04  7.71e-06    11.6
   39    -3140.9626519263683804     1.84e-08  1.37e-06  1.24e-04  7.29e-06    11.5
   40    -3140.9626519181756521     8.19e-09  1.62e-06  2.12e-04  2.15e-06    10.6
                 **** Energy Check signals convergence ****

               *****************************************************
               *                     SUCCESS                       *
               *           SCF CONVERGED AFTER  40 CYCLES          *
               *****************************************************

 done (   41.924 sec)
Old exchange energy                            :    -65.918329954 Eh
New exchange energy                            :    -65.918332627 Eh
Exchange energy change after final integration :     -0.000002673 Eh
Total energy after final integration           :  -3140.962654591 Eh
             **** ENERGY FILE WAS UPDATED (GENZII-S3.en.tmp) ****

----------------
TOTAL SCF ENERGY
----------------

Total Energy       :      -3140.96265459123151 Eh          -85469.93904 eV

Components:
Nuclear Repulsion  :       4167.35375407193806 Eh          113399.46077 eV
Electronic Energy  :      -7308.31640599011371 Eh         -198869.39973 eV
One Electron Energy:     -12605.82453511224776 Eh         -343021.92450 eV
Two Electron Energy:       5297.50812912213405 Eh          144152.52477 eV

Virial components:
Potential Energy   :      -6278.12577569325185 Eh         -170836.48752 eV
Kinetic Energy     :       3137.16312110202034 Eh           85366.54848 eV
Virial Ratio       :          2.00121113673167

DFT components:
N(Alpha)           :      126.000023294189 electrons
N(Beta)            :      124.000025444331 electrons
N(Total)           :      250.000048738520 electrons
E(X)               :     -197.220546030327 Eh       
E(C)               :       -8.876592882714 Eh       
E(XC)              :     -206.097138913041 Eh       

---------------
SCF CONVERGENCE
---------------

  Last Energy change         ...   -8.1927e-09  Tolerance :   1.0000e-08
  Last MAX-Density change    ...    2.1160e-04  Tolerance :   1.0000e-07
  Last RMS-Density change    ...    1.6237e-06  Tolerance :   5.0000e-09
  Last DIIS Error            ...    1.8901e-03  Tolerance :   5.0000e-07
  Last Orbital Gradient      ...    2.1500e-06  Tolerance :   1.0000e-05
  Last Orbital Rotation      ...    2.8256e-05  Tolerance :   1.0000e-05


----------------------
UHF SPIN CONTAMINATION
----------------------

Warning: in a DFT calculation there is little theoretical justification to 
         calculate <S**2> as in Hartree-Fock theory. We will do it anyways
         but you should keep in mind that the values have only limited relevance

Expectation value of <S**2>     :     2.787335
Ideal value S*(S+1) for S=1.0   :     2.000000
Deviation                       :     0.787335

----------------
ORBITAL ENERGIES
----------------
                 SPIN UP ORBITALS
  NO   OCC          E(Eh)            E(eV) 
   0   1.0000    -216.022274     -5878.2649 
   1   1.0000    -101.612386     -2765.0136 
   2   1.0000    -101.609696     -2764.9404 
   3   1.0000     -24.874101      -676.8587 
   4   1.0000     -21.128915      -574.9470 
   5   1.0000     -21.127609      -574.9115 
   6   1.0000     -21.127445      -574.9070 
   7   1.0000     -14.479018      -393.9941 
   8   1.0000     -14.454234      -393.3197 
   9   1.0000     -14.450679      -393.2230 
  10   1.0000     -14.440101      -392.9351 
  11   1.0000     -14.426280      -392.5590 
  12   1.0000     -14.423498      -392.4833 
  13   1.0000     -10.319964      -280.8205 
  14   1.0000     -10.305551      -280.4283 
  15   1.0000     -10.277323      -279.6602 
  16   1.0000     -10.276956      -279.6502 
  17   1.0000     -10.270380      -279.4713 
  18   1.0000     -10.265690      -279.3436 
  19   1.0000     -10.261122      -279.2193 
  20   1.0000     -10.251625      -278.9609 
  21   1.0000     -10.244413      -278.7647 
  22   1.0000     -10.241870      -278.6954 
  23   1.0000     -10.239254      -278.6243 
  24   1.0000     -10.231985      -278.4265 
  25   1.0000     -10.229811      -278.3673 
  26   1.0000     -10.227255      -278.2978 
  27   1.0000     -10.227028      -278.2916 
  28   1.0000     -10.225908      -278.2611 
  29   1.0000     -10.224876      -278.2330 
  30   1.0000     -10.223977      -278.2086 
  31   1.0000     -10.223373      -278.1921 
  32   1.0000     -10.222576      -278.1704 
  33   1.0000     -10.220247      -278.1071 
  34   1.0000     -10.216592      -278.0076 
  35   1.0000      -9.439114      -256.8514 
  36   1.0000      -9.436240      -256.7732 
  37   1.0000      -7.169156      -195.0827 
  38   1.0000      -7.167255      -195.0309 
  39   1.0000      -7.166801      -195.0186 
  40   1.0000      -7.166249      -195.0035 
  41   1.0000      -7.164433      -194.9541 
  42   1.0000      -7.163904      -194.9397 
  43   1.0000      -3.012145       -81.9646 
  44   1.0000      -1.949687       -53.0537 
  45   1.0000      -1.945990       -52.9531 
  46   1.0000      -1.944792       -52.9205 
  47   1.0000      -1.094591       -29.7853 
  48   1.0000      -1.065112       -28.9832 
  49   1.0000      -1.008937       -27.4546 
  50   1.0000      -0.990857       -26.9626 
  51   1.0000      -0.911401       -24.8005 
  52   1.0000      -0.901442       -24.5295 
  53   1.0000      -0.871650       -23.7188 
  54   1.0000      -0.860604       -23.4182 
  55   1.0000      -0.858543       -23.3622 
  56   1.0000      -0.848547       -23.0901 
  57   1.0000      -0.806919       -21.9574 
  58   1.0000      -0.802185       -21.8286 
  59   1.0000      -0.795746       -21.6534 
  60   1.0000      -0.792344       -21.5608 
  61   1.0000      -0.749727       -20.4011 
  62   1.0000      -0.745860       -20.2959 
  63   1.0000      -0.738758       -20.1026 
[...]
113:   1483.13   0.009915   50.11  0.002086  (-0.017372 -0.000438 -0.042241)
114:   1486.41   0.004438   22.43  0.000932  (-0.005074 -0.030043  0.001857)
115:   1492.03   0.010260   51.85  0.002146  ( 0.025327 -0.001464  0.038760)
116:   1497.19   0.000339    1.71  0.000071  (-0.000959 -0.008256  0.001249)
117:   1506.63   0.012412   62.72  0.002571  ( 0.014070  0.000530  0.048709)
118:   1510.41   0.008100   40.93  0.001674  ( 0.006418  0.040333 -0.002364)
119:   1525.70   0.006889   34.81  0.001409  ( 0.006951  0.001639  0.036852)
120:   1526.77   0.006553   33.11  0.001339  ( 0.005914  0.035955 -0.003404)
121:   1612.10   0.005719   28.90  0.001107  (-0.019583  0.004160 -0.026575)
122:   1615.12   0.003647   18.43  0.000705  (-0.006422 -0.025745 -0.000777)
123:   1645.23   0.000252    1.27  0.000048  (-0.000058  0.003558  0.005926)
124:   1645.63   0.000900    4.55  0.000171  ( 0.001542  0.000176 -0.012973)
125:   1658.48   0.000429    2.17  0.000081  ( 0.001757  0.000302  0.008809)
126:   1658.63   0.000052    0.26  0.000010  (-0.001047 -0.002856 -0.000669)
127:   1664.59   0.018251   92.23  0.003422  ( 0.040958 -0.002507  0.041686)
128:   1664.81   0.000650    3.29  0.000122  ( 0.004157 -0.008292  0.005987)
129:   3189.49   0.000648    3.27  0.000063  ( 0.007738 -0.000736  0.001715)
130:   3189.61   0.000066    0.33  0.000006  (-0.000633  0.002422 -0.000391)
131:   3199.95   0.000218    1.10  0.000021  (-0.000072 -0.002372 -0.003949)
132:   3200.07   0.003054   15.43  0.000298  ( 0.002802  0.016925 -0.001866)
133:   3203.76   0.003658   18.49  0.000356  ( 0.013593 -0.002688  0.012819)
134:   3203.80   0.001046    5.29  0.000102  (-0.007576 -0.002125 -0.006324)
135:   3210.43   0.001694    8.56  0.000165  (-0.005681 -0.001606  0.011394)
136:   3210.61   0.000956    4.83  0.000093  (-0.001509  0.007985  0.005181)
137:   3211.87   0.000421    2.13  0.000041  (-0.001473  0.002493 -0.005703)
138:   3212.15   0.000328    1.66  0.000032  ( 0.001875  0.004489  0.002871)
139:   3218.53   0.002604   13.16  0.000252  ( 0.007745  0.003378 -0.013456)
140:   3218.80   0.001675    8.47  0.000162  (-0.003275  0.009431  0.007922)
141:   3226.68   0.000236    1.19  0.000023  ( 0.003674  0.000546 -0.003001)
142:   3227.43   0.000602    3.04  0.000058  ( 0.000697  0.007595 -0.000134)
143:   3231.32   0.000383    1.94  0.000037  ( 0.000246 -0.001274  0.005943)
144:   3231.48   0.000226    1.14  0.000022  ( 0.000774  0.002669  0.003750)
145:   3237.09   0.000170    0.86  0.000016  (-0.001522  0.000776 -0.003669)
146:   3237.41   0.000141    0.71  0.000014  (-0.001598 -0.000833 -0.003220)

* The epsilon (eps) is given for a Dirac delta lineshape.
** The dipole moment derivative (T) already includes vibrational overlap.

The first frequency considered to be a vibration is 6
The total number of vibrations considered is 141


--------------------------
THERMOCHEMISTRY AT 298.15K
--------------------------

Temperature         ...   298.15 K
Pressure            ...     1.00 atm
Total Mass          ...   489.33 AMU
Quasi RRHO          ...     True
Cut-Off Frequency   ...     1.00 cm^-1

Throughout the following assumptions are being made:
  (1) The electronic state is orbitally nondegenerate
      but the spin degeneracy is treated
  (2) There are no thermally accessible electronically excited states
  (3) Hindered rotations indicated by low frequency modes are not
      treated as such but are treated as vibrations and this may
      cause some error
  (4) All equations used are the standard statistical mechanics
      equations for an ideal gas
  (5) All vibrations are strictly harmonic

freq.      24.30  E(vib)   ...       0.56 
freq.      35.46  E(vib)   ...       0.54 
freq.      39.81  E(vib)   ...       0.54 
freq.      55.15  E(vib)   ...       0.52 
freq.      69.31  E(vib)   ...       0.50 
freq.      71.30  E(vib)   ...       0.50 
freq.      71.69  E(vib)   ...       0.50 
freq.      76.86  E(vib)   ...       0.49 
freq.      86.16  E(vib)   ...       0.48 
freq.      87.90  E(vib)   ...       0.48 
freq.     113.28  E(vib)   ...       0.45 
freq.     133.47  E(vib)   ...       0.42 
freq.     138.21  E(vib)   ...       0.42 
freq.     152.07  E(vib)   ...       0.40 
freq.     164.42  E(vib)   ...       0.39 
freq.     170.77  E(vib)   ...       0.38 
freq.     194.12  E(vib)   ...       0.36 
freq.     197.55  E(vib)   ...       0.35 
freq.     218.33  E(vib)   ...       0.33 
freq.     231.42  E(vib)   ...       0.32 
freq.     255.66  E(vib)   ...       0.30 
freq.     262.29  E(vib)   ...       0.29 
freq.     268.01  E(vib)   ...       0.29 
freq.     308.84  E(vib)   ...       0.26 
freq.     308.87  E(vib)   ...       0.26 
freq.     350.90  E(vib)   ...       0.23 
freq.     351.53  E(vib)   ...       0.23 
freq.     373.63  E(vib)   ...       0.21 
freq.     375.35  E(vib)   ...       0.21 
freq.     415.37  E(vib)   ...       0.18 
freq.     422.16  E(vib)   ...       0.18 
freq.     422.73  E(vib)   ...       0.18 
freq.     442.21  E(vib)   ...       0.17 
freq.     448.38  E(vib)   ...       0.17 
freq.     458.81  E(vib)   ...       0.16 
freq.     542.22  E(vib)   ...       0.12 
freq.     552.83  E(vib)   ...       0.12 
freq.     553.25  E(vib)   ...       0.12 
freq.     565.79  E(vib)   ...       0.11 
freq.     572.51  E(vib)   ...       0.11 
freq.     576.55  E(vib)   ...       0.11 
freq.     593.97  E(vib)   ...       0.10 
freq.     599.28  E(vib)   ...       0.10 
freq.     631.02  E(vib)   ...       0.09 
freq.     631.99  E(vib)   ...       0.09 
freq.     661.14  E(vib)   ...       0.08 
freq.     661.71  E(vib)   ...       0.08 
freq.     690.42  E(vib)   ...       0.07 
freq.     696.95  E(vib)   ...       0.07 
freq.     708.39  E(vib)   ...       0.07 
freq.     711.21  E(vib)   ...       0.07 
freq.     763.88  E(vib)   ...       0.06 
freq.     765.93  E(vib)   ...       0.06 
freq.     786.46  E(vib)   ...       0.05 
freq.     787.10  E(vib)   ...       0.05 
freq.     799.10  E(vib)   ...       0.05 
freq.     801.49  E(vib)   ...       0.05 
freq.     857.17  E(vib)   ...       0.04 
freq.     861.38  E(vib)   ...       0.04 
freq.     869.66  E(vib)   ...       0.04 
freq.     871.35  E(vib)   ...       0.04 
freq.     901.30  E(vib)   ...       0.03 
freq.     902.14  E(vib)   ...       0.03 
freq.     941.47  E(vib)   ...       0.03 
freq.     946.04  E(vib)   ...       0.03 
freq.     948.03  E(vib)   ...       0.03 
freq.     980.76  E(vib)   ...       0.02 
freq.     981.96  E(vib)   ...       0.02 
freq.     986.48  E(vib)   ...       0.02 
freq.     999.03  E(vib)   ...       0.02 
freq.    1003.59  E(vib)   ...       0.02 
freq.    1004.41  E(vib)   ...       0.02 
freq.    1004.78  E(vib)   ...       0.02 
freq.    1013.93  E(vib)   ...       0.02 
freq.    1015.51  E(vib)   ...       0.02 
freq.    1021.27  E(vib)   ...       0.02 
freq.    1022.36  E(vib)   ...       0.02 
freq.    1023.05  E(vib)   ...       0.02 
freq.    1047.35  E(vib)   ...       0.02 
freq.    1056.02  E(vib)   ...       0.02 
freq.    1056.42  E(vib)   ...       0.02 
freq.    1068.78  E(vib)   ...       0.02 
freq.    1071.34  E(vib)   ...       0.02 
freq.    1108.61  E(vib)   ...       0.02 
freq.    1109.12  E(vib)   ...       0.02 
freq.    1126.86  E(vib)   ...       0.01 
freq.    1137.98  E(vib)   ...       0.01 
freq.    1154.56  E(vib)   ...       0.01 
freq.    1173.10  E(vib)   ...       0.01 
freq.    1179.34  E(vib)   ...       0.01 
freq.    1179.50  E(vib)   ...       0.01 
freq.    1188.46  E(vib)   ...       0.01 
freq.    1189.16  E(vib)   ...       0.01 
freq.    1195.06  E(vib)   ...       0.01 
freq.    1248.92  E(vib)   ...       0.01 
freq.    1250.16  E(vib)   ...       0.01 
freq.    1317.84  E(vib)   ...       0.01 
freq.    1319.77  E(vib)   ...       0.01 
freq.    1326.16  E(vib)   ...       0.01 
freq.    1327.90  E(vib)   ...       0.01 
freq.    1349.88  E(vib)   ...       0.01 
freq.    1350.11  E(vib)   ...       0.01 
freq.    1351.13  E(vib)   ...       0.01 
freq.    1355.48  E(vib)   ...       0.01 
freq.    1375.63  E(vib)   ...       0.01 
freq.    1376.28  E(vib)   ...       0.01 
freq.    1453.91  E(vib)   ...       0.00 
freq.    1483.13  E(vib)   ...       0.00 
freq.    1486.41  E(vib)   ...       0.00 
freq.    1492.03  E(vib)   ...       0.00 
freq.    1497.19  E(vib)   ...       0.00 
freq.    1506.63  E(vib)   ...       0.00 
freq.    1510.41  E(vib)   ...       0.00 
freq.    1525.70  E(vib)   ...       0.00 
freq.    1526.77  E(vib)   ...       0.00 
freq.    1612.10  E(vib)   ...       0.00 
freq.    1615.12  E(vib)   ...       0.00 
freq.    1645.23  E(vib)   ...       0.00 
freq.    1645.63  E(vib)   ...       0.00 
freq.    1658.48  E(vib)   ...       0.00 
freq.    1658.63  E(vib)   ...       0.00 
freq.    1664.59  E(vib)   ...       0.00 
freq.    1664.81  E(vib)   ...       0.00 
freq.    3189.49  E(vib)   ...       0.00 
freq.    3189.61  E(vib)   ...       0.00 
freq.    3199.95  E(vib)   ...       0.00 
freq.    3200.07  E(vib)   ...       0.00 
freq.    3203.76  E(vib)   ...       0.00 
freq.    3203.80  E(vib)   ...       0.00 
freq.    3210.43  E(vib)   ...       0.00 
freq.    3210.61  E(vib)   ...       0.00 
freq.    3211.87  E(vib)   ...       0.00 
freq.    3212.15  E(vib)   ...       0.00 
freq.    3218.53  E(vib)   ...       0.00 
freq.    3218.80  E(vib)   ...       0.00 
freq.    3226.68  E(vib)   ...       0.00 
freq.    3227.43  E(vib)   ...       0.00 
freq.    3231.32  E(vib)   ...       0.00 
freq.    3231.48  E(vib)   ...       0.00 
freq.    3237.09  E(vib)   ...       0.00 
freq.    3237.41  E(vib)   ...       0.00 

------------
INNER ENERGY
------------

The inner energy is: U= E(el) + E(ZPE) + E(vib) + E(rot) + E(trans)
    E(el)   - is the total energy from the electronic structure calculation
              = E(kin-el) + E(nuc-el) + E(el-el) + E(nuc-nuc)
    E(ZPE)  - the the zero temperature vibrational energy from the frequency calculation
    E(vib)  - the the finite temperature correction to E(ZPE) due to population
              of excited vibrational states
    E(rot)  - is the rotational thermal energy
    E(trans)- is the translational thermal energy

Summary of contributions to the inner energy U:
Electronic energy                ...  -3141.26533706 Eh
Zero point energy                ...      0.36702045 Eh     230.31 kcal/mol
Thermal vibrational correction   ...      0.02387985 Eh      14.98 kcal/mol
Thermal rotational correction    ...      0.00141627 Eh       0.89 kcal/mol
Thermal translational correction ...      0.00141627 Eh       0.89 kcal/mol
-----------------------------------------------------------------------
Total thermal energy                  -3140.87160421 Eh


Summary of corrections to the electronic energy:
(perhaps to be used in another calculation)
Total thermal correction                  0.02671239 Eh      16.76 kcal/mol
Non-thermal (ZPE) correction              0.36702045 Eh     230.31 kcal/mol
-----------------------------------------------------------------------
Total correction                          0.39373284 Eh     247.07 kcal/mol


--------
ENTHALPY
--------

The enthalpy is H = U + kB*T
                kB is Boltzmann's constant
Total thermal energy              ...  -3140.87160421 Eh 
Thermal Enthalpy correction       ...      0.00094421 Eh       0.59 kcal/mol
-----------------------------------------------------------------------
Total Enthalpy                    ...  -3140.87066000 Eh


Note: Only C1 symmetry has been detected, increase convergence thresholds 
      if your molecule has a higher symmetry. Symmetry factor of 1.0 is   
      used for the rotational entropy correction. 
 

Note: Rotational entropy computed according to Herzberg 
Infrared and Raman Spectra, Chapter V,1, Van Nostrand Reinhold, 1945 
Point Group:  C1, Symmetry Number:   1  
Rotational constants in cm-1:     0.005875     0.004227     0.003853 

Vibrational entropy computed according to the QRRHO of S. Grimme
Chem.Eur.J. 2012 18 9955 using a reference frequency of 100.0 cm-1


-------
ENTROPY
-------

The entropy contributions are T*S = T*(S(el)+S(vib)+S(rot)+S(trans))
     S(el)   - electronic entropy
     S(vib)  - vibrational entropy
     S(rot)  - rotational entropy
     S(trans)- translational entropy
The entropies will be listed as multiplied by the temperature to get
units of energy

Electronic entropy                ...      0.00103729 Eh      0.65 kcal/mol
Vibrational entropy               ...      0.04226440 Eh     26.52 kcal/mol
Rotational entropy                ...      0.01714087 Eh     10.76 kcal/mol
Translational entropy             ...      0.02112010 Eh     13.25 kcal/mol
-----------------------------------------------------------------------
Final entropy term                ...      0.08156266 Eh     51.18 kcal/mol

In case the symmetry of your molecule has not been determined correctly
or in case you have a reason to use a different symmetry number we print 
out the resulting rotational entropy values for sn=1,12:

 non-linear molecules -----------------------------------
|  sn= 1 | S(rot)=       0.01714087 Eh     10.76 kcal/mol|
|  sn= 2 | S(rot)=       0.01648641 Eh     10.35 kcal/mol|
|  sn= 3 | S(rot)=       0.01610358 Eh     10.11 kcal/mol|
|  sn= 4 | S(rot)=       0.01583195 Eh      9.93 kcal/mol|
|  sn= 5 | S(rot)=       0.01562127 Eh      9.80 kcal/mol|
|  sn= 6 | S(rot)=       0.01544912 Eh      9.69 kcal/mol|
|  sn= 7 | S(rot)=       0.01530358 Eh      9.60 kcal/mol|
|  sn= 8 | S(rot)=       0.01517750 Eh      9.52 kcal/mol|
|  sn= 9 | S(rot)=       0.01506629 Eh      9.45 kcal/mol|
|  sn=10 | S(rot)=       0.01496681 Eh      9.39 kcal/mol|
|  sn=11 | S(rot)=       0.01487682 Eh      9.34 kcal/mol|
|  sn=12 | S(rot)=       0.01479467 Eh      9.28 kcal/mol|
 linear molecules ---------------------------------------
|  Dinfh | S(rot)=       0.01057444 Eh      6.64 kcal/mol|
|  Cinfv | S(rot)=       0.01122890 Eh      7.05 kcal/mol|
 --------------------------------------------------------


-------------------
GIBBS FREE ENERGY
-------------------

The Gibbs free energy is G = H - T*S

Total enthalpy                    ...  -3140.87066000 Eh 
Total entropy correction          ...     -0.08156266 Eh    -51.18 kcal/mol
-----------------------------------------------------------------------
Final Gibbs free energy         ...  -3140.95222266 Eh

For completeness - the Gibbs free energy minus the electronic energy
G-E(el)                           ...      0.31311439 Eh    196.48 kcal/mol


Maximum memory used throughout the entire PROP-calculation: 1508.5 MB

--------------------------------
SUGGESTED CITATIONS FOR THIS RUN
--------------------------------

Below you find a list of papers that are relevant to this ORCA run
We neither can nor want to force you to cite these papers, but we appreciate if you do
You receive ORCA, which is the product of decades of hard work by many enthusiastic individuals, for free
The only thing we kindly ask in return is that you cite our papers,
We deeply appreciate it, if you show your appreciation for ORCA by not just citing the generic ORCA reference.

Please note that relegating all ORCA citations to the supporting information does *not* help us.
SI sections are not indexed - citations you put there will not count into any citation statistics
But we need these citations in order to attract the funding resources that allow us to do what we are doing

Therefore, if you are a happy ORCA user, please consider citing a few of the papers listed below in the main body of your paper

In addition to the list printed below, the program has created the file GENZII-S3.bibtex that contains the list in bibtex format
You can import this file easily into all common literature databanks and citation aid programs


List of essential papers. We consider these as the minimum necessary citations

  1. Neese,F.
     Software update: the ORCA program system, version 5.0
     WIRES Comput. Molec. Sci., 2022 12(1)e1606
     doi.org/10.1002/wcms.1606

List of papers to cite with high priority. The work reported in these papers was absolutely
necessary for this run to complete.
Our perspective: the developers of density functionals and basis sets usually get cited in chemistry papers
Good! But without the algorithms to do something with them, the functionals or basis sets would not do anything.
Hence, in our opinion, the algorithm design and method developments papers are equally worthy of getting cited

  1. Neese,F.
     An improvement of the resolution of the identity approximation for the formation of the Coulomb matrix
     J. Comp. Chem., 2003 24(14)1740-1747
     doi.org/10.1002/jcc.10318
  2. Neese,F.; Wennmohs,F.; Hansen,A.; Becker,U.
     Efficient, approximate and parallel Hartree-Fock and hybrid DFT calculations. A 'chain-of-spheres' algorithm for the Hartree-Fock exchange
     Chem. Phys., 2009 356(1-3)98-109
     doi.org/10.1016/j.chemphys.2008.10.036
  3. Bykov,D.; Petrenko,T.; Izsak,R.; Kossmann,S.; Becker,U.; Valeev,E.; Neese,F.
     Efficient implementation of the analytic second derivatives of Hartree-Fock and hybrid DFT energies: a detailed analysis of different approximations
     Molec. Phys., 2015 113 1961-1977
     doi.org/10.1080/00268976.2015.1025114
  4. Helmich-Paris,B.; de Souza,B.; Neese,F.; Izsák,R.
     An improved chain of spheres for exchange algorithm
     J. Chem. Phys., 2021 155 104109
     doi.org/doi: 10.1063/5.0058766.
  5. Neese,F.
     The SHARK Integral Generation and Digestion System
     J. Comp. Chem., 2022  1-16
     doi.org/10.1002/jcc.26942

List of suggested additional citations. These are papers that are important in the 'surrounding' of 
of this run, or papers that preceded the highly important papers. If you like your results we are grateful for a citation.

  1. Izsak,R.; Neese,F.
     An overlap fitted chain of spheres exchange method
     J. Chem. Phys., 2011 135 144105
     doi.org/10.1063/1.3646921
  2. Izsak,R.; Hansen,A.; Neese,F.
     The resolution of identity and chain of spheres approximations for the LPNO-CCSD singles Fock term
     Molec. Phys., 2012 110 2413-2417
     doi.org/10.1080/00268976.2012.687466
  3. Neese,F.
     The ORCA program system
     WIRES Comput. Molec. Sci., 2012 2(1)73-78
     doi.org/10.1002/wcms.81
  4. Izsak,R.; Neese,F.; Klopper,W.
     Robust fitting techniques in the chain of spheres approximation to the Fock exchange: The role of the complementary space
     J. Chem. Phys., 2013 139 
     doi.org/10.1063/1.4819264
  5. Neese,F.
     Software update: the ORCA program system, version 4.0
     WIRES Comput. Molec. Sci., 2018 8(1)1-6
     doi.org/10.1002/wcms.1327
  6. Neese,F.; Wennmohs,F.; Becker,U.; Riplinger,C.
     The ORCA quantum chemistry program package
     J. Chem. Phys., 2020 152 Art. No. L224108
     doi.org/10.1063/5.0004608

List of optional additional citations

  1. Neese,F.
     Approximate second-order SCF convergence for spin unrestricted wavefunctions
     Chem. Phys. Lett., 2000 325(1-3)93-98
     doi.org/10.1016/s0009-2614(00)00662-x

Timings for individual modules:

Sum of individual times          ...    23878.889 sec (= 397.981 min)
Startup calculation              ...      234.004 sec (=   3.900 min)   1.0 %
SCF iterations                   ...     5499.481 sec (=  91.658 min)  23.0 %
Property integrals               ...     4574.331 sec (=  76.239 min)  19.2 %
SCF Response                     ...    10766.032 sec (= 179.434 min)  45.1 %
Property calculations            ...     1511.922 sec (=  25.199 min)   6.3 %
SCF Gradient evaluation          ...     1292.496 sec (=  21.542 min)   5.4 %
Geometry relaxation              ...        0.623 sec (=   0.010 min)   0.0 %
                             ****ORCA TERMINATED NORMALLY****
TOTAL RUN TIME: 0 days 6 hours 38 minutes 28 seconds 863 msec
