
                                 *****************
                                 * O   R   C   A *
                                 *****************

                                            #,                                       
                                            ###                                      
                                            ####                                     
                                            #####                                    
                                            ######                                   
                                           ########,                                 
                                     ,,################,,,,,                         
                               ,,#################################,,                 
                          ,,##########################################,,             
                       ,#########################################, ''#####,          
                    ,#############################################,,   '####,        
                  ,##################################################,,,,####,       
                ,###########''''           ''''###############################       
              ,#####''   ,,,,##########,,,,          '''####'''          '####       
            ,##' ,,,,###########################,,,                        '##       
           ' ,,###''''                  '''############,,,                           
         ,,##''                                '''############,,,,        ,,,,,,###''
      ,#''                                            '''#######################'''  
     '                                                          ''''####''''         
             ,#######,   #######,   ,#######,      ##                                
            ,#'     '#,  ##    ##  ,#'     '#,    #''#        ,####,   ,####,        
            ##       ##  ##   ,#'  ##            #'  '#       #'       #'  '#        
            ##       ##  #######   ##           ,######,      #####,   #    #        
            '#,     ,#'  ##    ##  '#,     ,#' ,#      #,     #,   #   #,  ,#        
             '#######'   ##     ##  '#######'  #'      '#     '####' # '####'        



                #########################################################
                #                        -***-                          #
                #          Department of theory and spectroscopy        #
                #                                                       #
                #                      Frank Neese                      #
                #                                                       #
                #     Directorship, Architecture, Infrastructure        #
                #                    SHARK, DRIVERS                     #
                #        Core code/Algorithms in most modules           #
                #                                                       #
                #        Max Planck Institute fuer Kohlenforschung      #
                #                Kaiser Wilhelm Platz 1                 #
                #                 D-45470 Muelheim/Ruhr                 #
                #                      Germany                          #
                #                                                       #
                #                  All rights reserved                  #
                #                        -***-                          #
                #########################################################


                         Program Version 6.0.1  -  RELEASE   -


 With contributions from (in alphabetic order):
[Max-Planck-Institut fuer Kohlenforschung]                               
  Daniel Aravena         : Magnetic Suceptibility                        
  Michael Atanasov       : Ab Initio Ligand Field Theory (pilot matlab implementation)
  Alexander A. Auer      : GIAO ZORA, VPT2 properties, NMR spectrum      
  Ute Becker             : All parallelization in ORCA, NUMFREQ, NUMCALC 
  Giovanni Bistoni       : ED, misc. LED, open-shell LED, HFLD           
  Martin Brehm           : Molecular dynamics                            
  Dmytro Bykov           : pre 5.0 version of the SCF Hessian            
  Marcos Casanova-Páez   : Triplet and SCS-CIS(D). UHF-(DLPNO)-IP/EA/STEOM-CCSD. UHF-CVS-IP/STEOM-CCSD   
  Vijay G. Chilkuri      : MRCI spin determinant printing, contributions to CSF-ICE 
  Pauline Colinet        : FMM embedding                                 
  Dipayan Datta          : RHF DLPNO-CCSD density                        
  Achintya Kumar Dutta   : EOM-CC, STEOM-CC                              
  Nicolas Foglia         : Exact transition moments, OPA infrastructure, MCD improvements    
  Dmitry Ganyushin       : Spin-Orbit,Spin-Spin,Magnetic field MRCI      
  Miquel Garcia-Rates    : C-PCM and meta-GGA Hessian, CCSD/C-PCM, Gaussian charge scheme 
  Tiago L. C. Gouveia    : GS-ROHF, GS-ROCIS                             
  Yang Guo               : DLPNO-NEVPT2, F12-NEVPT2, CIM, IAO-localization        
  Andreas Hansen         : Spin unrestricted coupled pair/coupled cluster methods 
  Ingolf Harden          : AUTO-CI MPn and infrastructure                
  Benjamin Helmich-Paris : MC-RPA, TRAH-(SCF,CASSCF), AVAS, COSX integrals, SCF dyn. polar. 
  Lee Huntington         : MR-EOM, pCC                                   
  Robert Izsak           : Overlap fitted RIJCOSX, COSX-SCS-MP3, EOM     
  Riya Kayal             : Wick's Theorem for AUTO-CI, AUTO-CI UHF-CCSDT 
  Emily Kempfer          : AUTO-CI, RHF CISDT and CCSDT                  
  Christian Kollmar      : KDIIS, OOCD, Brueckner-CCSD(T), CCSD density, CASPT2, CASPT2-K, improved NEVPT2 
  Axel Koslowski         : Symmetry handling                             
  Simone Kossmann        : meta-GGA functionals, TD-DFT gradient, OOMP2, (MP2 Hessian; deprecated post 5.0) 
  Lucas Lang             : DCDCAS                                        
  Marvin Lechner         : AUTO-CI (C++ implementation), FIC-MRCC        
  Spencer Leger          : CASSCF response                               
  Dagmar Lenk            : GEPOL surface, SMD, ORCA-2-JSON               
  Dimitrios Liakos       : Extrapolation schemes; Compound Job, initial MDCI parallelization 
  Dimitrios Manganas     : Further ROCIS development; embedding schemes. LFT, Crystal Embedding 
  Dimitrios Pantazis     : SARC Basis sets                               
  Anastasios Papadopoulos: AUTO-CI, single reference methods and gradients 
  Taras Petrenko         : pre 6.0 DFT Hessian and TD-DFT gradient, (ASA, deprecated), ECA, 1-Electron XAS/XES, NRVS 
  Peter Pinski           : DLPNO-MP2, DLPNO-MP2 Gradient                 
  Christoph Reimann      : Effective Core Potentials                     
  Marius Retegan         : Local ZFS, SOC                                
  Christoph Riplinger    : Optimizer, TS searches, QM/MM, DLPNO-CCSD(T), (RO)-DLPNO pert. Triples 
  Michael Roemelt        : Original ROCIS implementation                 
  Masaaki Saitow         : Open-shell DLPNO-CCSD energy and density      
  Barbara Sandhoefer     : DKH picture change effects                    
  Kantharuban Sivalingam : CASSCF convergence/infrastructure, NEVPT2 and variants, FIC-MRCI 
  Bernardo de Souza      : ESD, SOC TD-DFT                               
  Georgi L. Stoychev     : AutoAux, RI-MP2 NMR, DLPNO-MP2 response, X2C  
  Van Anh Tran           : RI-MP2 g-tensors                              
  Willem Van den Heuvel  : Paramagnetic NMR                              
  Zikuan Wang            : NOTCH, Electric field optimization            
  Frank Wennmohs         : Technical directorship and infrastructure     
  Hang Xu                : AUTO-CI-Response properties                   
                                                                         
[FACCTs GmbH]                                                            
  Markus Bursch, Miquel Garcia-Rates, Christoph Riplinger, Bernardo de Souza, Georgi L. Stoychev 
                                                                 
  APM, Basis sets (HGBS, AHGBS, def-TZVP (Ac-Lr), def2-XVPD (La-Lu)), CI-OPT, improved COSX, DLPNO-Multilevel,           
  DOCKER, DRACO, updates on ESD, GOAT, IRC, LR-CPCM, MBIS, meta-GGA TD-DFT gradient, ML-optimized integration grids, 
  MM, NACMEs, nearIR, NEB, NEB-TS, NL-DFT gradient (VV10), 2- and 3-layer-ONIOM, interface openCOSMO-RS, QMMM,   
  Crystal-QMMM, SF, symmetry and pop. for TD-DFT, r2SCAN hybrids, SOLVATOR                                   
                                                                         
[Other institutions]                                                     
  V. Asgeirsson          : NEB                                           
  Christoph Bannwarth    : sTDA-DFT, sTD-DFT, PBEh-3c, B97-3c, D3        
  Sebastian Ehlert       : rSCAN, r2SCAN, r2SCAN-3c, D4, dhf basis sets  
  Marvin Friede          : D4 for Fr, Ra, Ac-Lr                          
  Lars Goerigk           : TD-DFT with DH, B97 family of functionals     
  Stefan Grimme          : VdW corrections, initial TS optimization, DFT functionals, gCP, sTDA/sTD-DF 
  Waldemar Hujo          : DFT-NL                                        
  H. Jonsson             : NEB                                           
  Holger Kruse           : gCP                                           
  Marcel Mueller         : wB97X-3c, vDZP basis set                      
  Hagen Neugebauer       : wr2SCAN                                       
  Tobias Risthaus        : range-separated hybrid DFT                    
  Lukas Wittmann         : regularized MP2, r2SCAN double-hybrids, wr2SCAN        
                                                                         
We gratefully acknowledge several colleagues who have allowed us to      
interface, adapt or use parts of their codes:                            
  Ed Valeev, F. Pavosevic, A. Kumar             : LibInt (2-el integral package), F12 methods 
  Garnet Chan, S. Sharma, J. Yang, R. Olivares  : DMRG                   
  Ulf Ekstrom                                   : XCFun DFT Library      
  Mihaly Kallay                                 : mrcc  (arbitrary order and MRCC methods)
  Frank Weinhold                                : gennbo (NPA and NBO analysis)           
  Simon Mueller                                 : openCOSMO-RS                            
  Christopher J. Cramer and Donald G. Truhlar   : smd solvation model                     
  S Lehtola, MJT Oliveira, MAL Marques          : LibXC Library                           
  Liviu Ungur et al                             : ANISO software                          


 Your calculation uses the libint2 library for the computation of 2-el integrals
 For citations please refer to: http://libint.valeyev.net

 Your ORCA version has been built with support for libXC version: 6.2.2
 For citations please refer to: https://libxc.gitlab.io

 This ORCA versions uses:
   CBLAS   interface :  Fast vector & matrix operations
   LAPACKE interface :  Fast linear algebra routines
   SCALAPACK package :  Parallel linear algebra routines
   Shared memory     :  Shared parallel matrices
   BLAS/LAPACK       :  OpenBLAS 0.3.27  USE64BITINT DYNAMIC_ARCH NO_AFFINITY Cooperlake SINGLE_THREADED
        Core in use  :  Cooperlake
   Copyright (c) 2011-2014, The OpenBLAS Project


NOTE: MaxCore=18000 MB was set to SCF,MP2,MDCI,CIPSI,MRCI and CIS
      => If you want to overwrite this, your respective input block should be placed after the MaxCore statement
Warning: RI is on but no J-basis has been assigned. Assigning Def2/J (nothing to worry about!)
================================================================================

----- Orbital basis set information -----
Your calculation utilizes the basis: def2-TZVP
   F. Weigend and R. Ahlrichs, Phys. Chem. Chem. Phys. 7, 3297 (2005).

----- AuxJ basis set information -----
Your calculation utilizes the auxiliary basis: def2/J
   F. Weigend, Phys. Chem. Chem. Phys. 8, 1057 (2006).

================================================================================
                                        WARNINGS
                       Please study these warnings very carefully!
================================================================================


WARNING: your system is open-shell and RHF/RKS was chosen
  ===> : WILL SWITCH to UHF/UKS


WARNING: Geometry Optimization
  ===> : Switching off AutoStart
         For restart on a previous wavefunction, please use MOREAD

================================================================================
                                       INPUT FILE
================================================================================
NAME = HIDGUX-S5.inp
|  1> ! PBE0 def2-TZVP Opt Freq DEFGRID3
|  2> 
|  3> %maxcore 18000
|  4> 
|  5> %pal
|  6>     nprocs 32
|  7> end
|  8> 
|  9> *xyz 0 3
| 10> Cr 0.0010016002126256825 -0.0012707426441528247 -0.059571716253430225
| 11> O -0.9844827627604064 0.9869118758755009 1.2806665221008757
| 12> C -1.788506886531025 1.7951255416660208 3.319811067751732
| 13> F -3.0695013993651052 1.5514398981925628 3.016917978946319
| 14> F -1.6562328654281424 1.6658103933040997 4.641687594342982
| 15> C -0.8644397370462704 0.86926600170453 2.5425638558440755
| 16> C -0.008136267482148025 0.014158653617011924 3.2260956207121776
| 17> H -0.010976600376059704 0.019241322512509346 4.304442911148855
| 18> O 1.449296281473804 1.4453923531228112 -0.061636705878623216
| 19> C 2.865723802984245 1.1837413869631788 0.04080313985609102
| 20> H 3.100703649243787 0.3493928673069577 -0.6173099866901757
| 21> C 3.52743377671337 2.5069241568275937 -0.24681072139506927
| 22> H 3.7229566248895876 2.674106097346475 -1.1776122598422922
| 23> O 0.9772928130169527 -0.9754565316616907 1.2944131273093014
| 24> O 0.9869901297900574 -0.9898557533257124 -1.399561057885756
| 25> O -0.9746544849467822 0.9725090893945555 -1.4145218704839766
| 26> C 1.7925281927196857 -1.7981434352351522 -3.4379918427785188
| 27> C -1.7670776016918355 1.7631178923725865 -3.465887071852027
| 28> C 1.7715915233778006 -1.7657282185725827 3.3452602774002447
| 29> F -1.545450921315769 3.07541973936311 3.013504559501508
| 30> F 1.5488947732270133 -3.078447448117051 -3.1320778014425317
| 31> F 3.0732964666784275 -1.5548345669712287 -3.133791489339856
| 32> F -3.049919944159091 1.522590791855151 -3.169228965223875
| 33> F -1.525426559291944 3.046159226053805 -3.17095760322542
| 34> F 1.529902696383068 -3.0488445825257284 3.0508229437564265
| 35> F 3.054115989394884 -1.5250355632692396 3.047471148147773
| 36> F 1.6616277370920638 -1.6686501528304498 -4.759920107239345
| 37> F -1.6263148797603615 1.620803418055622 -4.7858098666771145
| 38> F 1.6318506662105445 -1.623028925608189 4.665302237480074
| 39> C 0.8515195098813437 -0.8471376518489742 2.5546011866680343
| 40> C 0.8679441873264071 -0.8722075089150733 -2.661363574954307
| 41> C -0.8478466717706431 0.8442646686311788 -2.6744596960935914
| 42> C 0.012325898741812794 -0.01692088722676027 -3.345471648577762
| 43> H 0.015995012826607372 -0.021773604056055208 -4.423815958521112
| 44> O -1.4462699128988687 -1.4492280969435831 -0.056564508599655526
| 45> C 1.1889592408688816 2.863005467907247 -0.1617291913789796
| 46> C -2.863954744731304 -1.1885213421333016 -0.15463193417186807
| 47> C -1.184886014560944 -2.8655841422472705 0.048315827671909076
| 48> H 3.0773837594046913 0.8913643536334653 1.0796010097945683
| 49> H 0.3770100215682442 3.102937519860927 0.5250925489141929
| 50> H 0.8677999600202514 3.08561626351328 -1.1759140166993798
| 51> H -3.1024436392378276 -0.37525194693548164 0.5310774296325101
| 52> H -3.0878264590743303 -0.8689454154937292 -1.1691945725412107
| 53> H -0.3519796924093087 -3.102297631316411 -0.6109999281535295
| 54> H -0.8906710589393284 -3.075507881194585 1.0866598196663286
| 55> C 2.5024337086122954 3.515558439189384 0.2586569809802302
| 56> C -3.5166000538825095 -2.5023167946685736 0.2611636996157397
| 57> C -2.507471946825187 -3.5271243010760625 -0.24332395940178791
| 58> H 2.5140540518186936 3.569094331642199 1.4933157119045462
| 59> H 2.614277989351156 4.537182913215033 0.21283363617592177
| 60> H 4.47502323084925 2.6121401982917303 0.6824467053385801
| 61> H -2.664691560351525 -3.7149251233027525 -1.192089198770622
| 62> H -2.610512836049314 -4.478199126835823 0.631081622560233
| 63> H -3.578707990519505 -2.524057721153507 1.474175601859367
| 64> H -4.532199909629226 -2.614489932786929 0.15913771051309494
| 65> *
| 66> 
| 67>                          ****END OF INPUT****
================================================================================

                       *****************************
                       * Geometry Optimization Run *
                       *****************************

Geometry optimization settings:
Update method            Update   .... BFGS
Choice of coordinates    CoordSys .... (2022) Redundant Internals
Initial Hessian          InHess   .... Almloef's Model
Max. no of cycles        MaxIter  .... 165

Convergence Tolerances:
Energy Change            TolE     ....  5.0000e-06 Eh
Max. Gradient            TolMAXG  ....  3.0000e-04 Eh/bohr
RMS Gradient             TolRMSG  ....  1.0000e-04 Eh/bohr
Max. Displacement        TolMAXD  ....  4.0000e-03 bohr
RMS Displacement         TolRMSD  ....  2.0000e-03 bohr
Strict Convergence                .... False

------------------------------------------------------------------------------
                        ORCA OPTIMIZATION COORDINATE SETUP
------------------------------------------------------------------------------

The optimization will be done in redundant internal coordinates (2022)
Making redundant internal coordinates   ...  (2022 redundants) done
Evaluating the initial hessian          ...  (Almloef) done
Evaluating the coordinates              ...  done
Calculating the B-matrix                .... done
Calculating the G-matrix                .... done
Diagonalizing the G-matrix              .... done
Small eigenvalue found = 4.571e-03
Small eigenvalue found = 8.976e-03
Small eigenvalue found = 1.078e-02
Small eigenvalue found = 1.163e-02
Small eigenvalue found = 1.220e-02
Small eigenvalue found = 1.376e-02
Small eigenvalue found = 2.224e-02
Small eigenvalue found = 2.274e-02
The first mode is                       ....  153
The number of degrees of freedom        ....  159

    -----------------------------------------------------------------
                    Redundant Internal Coordinates


    -----------------------------------------------------------------
         Definition                    Initial Value    Approx d2E/dq
    -----------------------------------------------------------------
      1. B(O   1,Cr  0)                  1.9349         0.764913   
      2. B(F   3,C   2)                  1.3387         0.627825   
      3. B(F   4,C   2)                  1.3348         0.636947   
      4. B(C   5,O   1)                  1.2730         0.859953   
      5. B(C   5,C   2)                  1.5216         0.385300   
      6. B(C   6,C   5)                  1.3898         0.625143   
      7. B(H   7,C   6)                  1.0784         0.375828   
      8. B(O   8,Cr  0)                  2.0470         0.506671   
      9. B(C   9,O   8)                  1.4440         0.458854   
     10. B(H  10,C   9)                  1.0883         0.362314   
     11. B(C  11,C   9)                  1.5071         0.406340   
     12. B(H  12,C  11)                  0.9657         0.568514   
     13. B(O  13,Cr  0)                  1.9327         0.771088   
     14. B(O  14,Cr  0)                  1.9352         0.764099   
     15. B(O  15,Cr  0)                  1.9329         0.770660   
     16. B(F  19,C   2)                  1.3387         0.627843   
     17. B(F  20,C  16)                  1.3387         0.627786   
     18. B(F  21,C  16)                  1.3387         0.627799   
     19. B(F  22,C  17)                  1.3385         0.628282   
     20. B(F  23,C  17)                  1.3385         0.628256   
     21. B(F  24,C  18)                  1.3385         0.628325   
     22. B(F  25,C  18)                  1.3385         0.628337   
     23. B(F  26,C  16)                  1.3347         0.637104   
     24. B(F  27,C  17)                  1.3350         0.636345   
     25. B(F  28,C  18)                  1.3351         0.636224   
     26. B(C  29,C  18)                  1.5217         0.385182   
     27. B(C  29,O  13)                  1.2729         0.860297   
     28. B(C  29,C   6)                  1.3899         0.625090   
     29. B(C  30,C  16)                  1.5216         0.385237   
     30. B(C  30,O  14)                  1.2729         0.860545   
     31. B(C  31,O  15)                  1.2728         0.860779   
     32. B(C  31,C  17)                  1.5217         0.385112   
     33. B(C  32,C  31)                  1.3899         0.625049   
     34. B(C  32,C  30)                  1.3898         0.625208   
     35. B(H  33,C  32)                  1.0784         0.375830   
     36. B(O  34,Cr  0)                  2.0472         0.506312   
     37. B(C  35,O   8)                  1.4448         0.457573   
     38. B(C  36,O  34)                  1.4448         0.457576   
     39. B(C  37,O  34)                  1.4441         0.458758   
     40. B(H  38,C   9)                  1.0997         0.347468   
     41. B(H  39,C  35)                  1.0902         0.359825   
     42. B(H  40,C  35)                  1.0869         0.364275   
     43. B(H  41,C  36)                  1.0902         0.359869   
     44. B(H  42,C  36)                  1.0870         0.364081   
     45. B(H  43,C  37)                  1.0883         0.362315   
     46. B(H  44,C  37)                  1.0994         0.347814   
     47. B(C  45,C  35)                  1.5257         0.379521   
     48. B(C  45,C  11)                  1.5243         0.381491   
     49. B(C  46,C  36)                  1.5248         0.380837   
     50. B(C  47,C  46)                  1.5242         0.381670   
     51. B(C  47,C  37)                  1.5073         0.406079   
     52. B(H  48,C  45)                  1.2359         0.210713   
     53. B(H  49,C  45)                  1.0287         0.450967   
     54. B(H  50,C  11)                  1.3314         0.148372   
     55. B(H  51,C  47)                  0.9799         0.539673   
     56. B(H  52,C  47)                  1.2961         0.168921   
     57. B(H  53,C  46)                  1.2148         0.227677   
     58. B(H  54,C  46)                  1.0269         0.454113   
     59. A(O   1,Cr  0,O  13)           91.6876         0.590206   
     60. A(O   1,Cr  0,O   8)           90.0068         0.544761   
     61. A(O   8,Cr  0,O  13)           89.9733         0.545591   
     62. A(O   1,Cr  0,O  15)           88.3481         0.590143   
     63. A(O  13,Cr  0,O  14)           88.2940         0.590085   
     64. A(O  13,Cr  0,O  34)           89.9755         0.545518   
     65. A(O   1,Cr  0,O  34)           90.0080         0.544688   
     66. A(O   8,Cr  0,O  14)           89.9910         0.544651   
     67. A(O   8,Cr  0,O  15)           90.0218         0.545534   
     68. A(O  15,Cr  0,O  34)           90.0293         0.545460   
     69. A(O  14,Cr  0,O  34)           89.9941         0.544578   
     70. A(O  14,Cr  0,O  15)           91.6703         0.590022   
     71. A(Cr  0,O   1,C   5)          126.2544         0.532746   
     72. A(C   5,C   2,F  19)          110.7812         0.395449   
     73. A(F   4,C   2,C   5)          112.7523         0.396449   
     74. A(F   3,C   2,F   4)          107.5340         0.427645   
     75. A(F   3,C   2,F  19)          107.2213         0.426544   
     76. A(F   3,C   2,C   5)          110.7807         0.395447   
     77. A(F   4,C   2,F  19)          107.5339         0.427647   
     78. A(C   2,C   5,C   6)          119.8228         0.399423   
     79. A(O   1,C   5,C   2)          113.1315         0.419912   
     80. A(O   1,C   5,C   6)          127.0457         0.458219   
     81. A(H   7,C   6,C  29)          119.1880         0.355969   
     82. A(C   5,C   6,C  29)          121.6505         0.435352   
     83. A(C   5,C   6,H   7)          119.1615         0.355974   
     84. A(Cr  0,O   8,C   9)          124.4619         0.439672   
     85. A(C   9,O   8,C  35)          111.0662         0.384991   
     86. A(Cr  0,O   8,C  35)          124.4717         0.439450   
     87. A(C  11,C   9,H  38)          109.2190         0.326909   
     88. A(H  10,C   9,C  11)          117.5727         0.329172   
     89. A(O   8,C   9,H  10)          107.9263         0.333840   
     90. A(O   8,C   9,C  11)          104.9541         0.379532   
     91. A(H  10,C   9,H  38)          109.0155         0.289493   
     92. A(O   8,C   9,H  38)          107.6963         0.331532   
     93. A(C   9,C  11,H  12)          115.1398         0.354955   
     94. A(C   9,C  11,H  50)          104.3995         0.285230   
     95. A(C  45,C  11,H  50)          101.2366         0.282447   
     96. A(C   9,C  11,C  45)          102.8516         0.369952   
     97. A(H  12,C  11,C  45)          109.9512         0.351183   
     98. A(H  12,C  11,H  50)          120.9953         0.272120   
     99. A(Cr  0,O  13,C  29)          126.3573         0.533594   
    100. A(Cr  0,O  14,C  30)          126.2667         0.532708   
    101. A(Cr  0,O  15,C  31)          126.3612         0.533595   
    102. A(F  21,C  16,F  26)          107.5334         0.427661   
    103. A(F  20,C  16,F  26)          107.5339         0.427659   
    104. A(F  26,C  16,C  30)          112.7605         0.396455   
    105. A(F  21,C  16,C  30)          110.7785         0.395432   
    106. A(F  20,C  16,C  30)          110.7784         0.395431   
    107. A(F  20,C  16,F  21)          107.2183         0.426533   
    108. A(F  23,C  17,F  27)          107.5178         0.427625   
    109. A(F  22,C  17,F  27)          107.5195         0.427628   
    110. A(F  22,C  17,F  23)          107.2447         0.426649   
    111. A(F  27,C  17,C  31)          112.7149         0.396349   
    112. A(F  23,C  17,C  31)          110.8027         0.395460   
    113. A(F  22,C  17,C  31)          110.8046         0.395463   
    114. A(F  24,C  18,F  25)          107.2459         0.426664   
    115. A(F  28,C  18,C  29)          112.7021         0.396348   
    116. A(F  25,C  18,C  29)          110.8067         0.395482   
    117. A(F  24,C  18,C  29)          110.8072         0.395481   
    118. A(F  25,C  18,F  28)          107.5211         0.427621   
    119. A(F  24,C  18,F  28)          107.5219         0.427619   
    120. A(O  13,C  29,C  18)          113.1912         0.419919   
    121. A(C   6,C  29,C  18)          119.8043         0.399396   
    122. A(C   6,C  29,O  13)          127.0045         0.458246   
    123. A(C  16,C  30,C  32)          119.8230         0.399419   
    124. A(O  14,C  30,C  32)          127.0428         0.458286   
    125. A(O  14,C  30,C  16)          113.1342         0.419952   
    126. A(C  17,C  31,C  32)          119.7947         0.399379   
    127. A(O  15,C  31,C  17)          113.1920         0.419948   
    128. A(O  15,C  31,C  32)          127.0132         0.458287   
    129. A(C  31,C  32,H  33)          119.1873         0.355965   
    130. A(C  30,C  32,H  33)          119.1669         0.355980   
    131. A(C  30,C  32,C  31)          121.6457         0.435355   
    132. A(C  36,O  34,C  37)          111.0706         0.384977   
    133. A(Cr  0,O  34,C  37)          124.4607         0.439599   
    134. A(Cr  0,O  34,C  36)          124.4684         0.439394   
    135. A(H  40,C  35,C  45)          115.0809         0.325778   
    136. A(H  39,C  35,C  45)          111.9287         0.325121   
    137. A(O   8,C  35,C  45)          104.2083         0.374896   
    138. A(H  39,C  35,H  40)          108.8272         0.291332   
    139. A(O   8,C  35,H  40)          108.5938         0.333984   
    140. A(O   8,C  35,H  39)          107.8481         0.333303   
    141. A(H  42,C  36,C  46)          114.8148         0.325935   
    142. A(H  41,C  36,C  46)          112.1865         0.325312   
    143. A(O  34,C  36,C  46)          104.2417         0.375120   
    144. A(H  41,C  36,H  42)          108.8260         0.291313   
    145. A(O  34,C  36,H  42)          108.5718         0.333955   
    146. A(O  34,C  36,H  41)          107.8531         0.333310   
    147. A(H  44,C  37,C  47)          109.4961         0.326928   
    148. A(H  43,C  37,C  47)          117.3130         0.329138   
    149. A(O  34,C  37,C  47)          104.9271         0.379476   
    150. A(H  43,C  37,H  44)          109.0146         0.289538   
    151. A(O  34,C  37,H  44)          107.7159         0.331575   
    152. A(O  34,C  37,H  43)          107.9297         0.333828   
    153. A(H  48,C  45,H  49)           90.0263         0.277126   
    154. A(C  35,C  45,H  49)          120.4022         0.337500   
    155. A(C  11,C  45,H  49)          124.6977         0.337792   
    156. A(C  35,C  45,H  48)          107.5710         0.298186   
    157. A(C  11,C  45,H  48)          110.7091         0.298431   
    158. A(C  11,C  45,C  35)          101.8013         0.365644   
    159. A(H  53,C  46,H  54)           92.6762         0.280753   
    160. A(C  36,C  46,H  54)          119.3649         0.338087   
    161. A(C  47,C  46,H  53)          110.6295         0.302157   
    162. A(C  36,C  46,H  53)          108.0351         0.302052   
    163. A(C  47,C  46,H  54)          123.2636         0.338210   
    164. A(C  36,C  46,C  47)          101.8699         0.365890   
    165. A(H  51,C  47,H  52)          119.9903         0.275367   
    166. A(C  46,C  47,H  52)          102.5596         0.288231   
    167. A(C  37,C  47,H  52)          105.1468         0.291046   
    168. A(C  46,C  47,H  51)          110.0672         0.348139   
    169. A(C  37,C  47,H  51)          114.3463         0.351801   
    170. A(C  37,C  47,C  46)          102.8154         0.369941   
    171. D(C   5,O   1,Cr  0,O  15)   -179.9878         0.004391   
    172. D(C   5,O   1,Cr  0,O  34)     89.9831         0.004391   
    173. D(C   5,O   1,Cr  0,O  13)      0.0074         0.004391   
    174. D(C   5,O   1,Cr  0,O   8)    -89.9661         0.004391   
    175. D(C   2,C   5,O   1,Cr  0)    179.9948         0.058034   
    176. D(C   6,C   5,C   2,F   4)      0.0098         0.011060   
    177. D(C   6,C   5,O   1,Cr  0)      0.0002         0.058034   
    178. D(O   1,C   5,C   2,F   4)   -179.9852         0.011060   
    179. D(C   6,C   5,C   2,F   3)   -120.5589         0.011060   
    180. D(O   1,C   5,C   2,F  19)    -59.4162         0.011060   
    181. D(O   1,C   5,C   2,F   3)     59.4461         0.011060   
    182. D(C  29,C   6,C   5,O   1)     -0.0084         0.027070   
    183. D(C  29,C   6,C   5,C   2)    179.9973         0.027070   
    184. D(H   7,C   6,C   5,C   2)     -0.0020         0.027070   
    185. D(H   7,C   6,C   5,O   1)    179.9922         0.027070   
    186. D(C   9,O   8,Cr  0,O  14)    -48.7981         0.002849   
    187. D(C   9,O   8,Cr  0,O  15)   -140.4684         0.002849   
    188. D(C  35,O   8,Cr  0,O  13)   -140.3091         0.002849   
    189. D(C  35,O   8,Cr  0,O   1)    -48.6215         0.002849   
    190. D(C  35,O   8,Cr  0,O  15)     39.7266         0.002849   
    191. D(C   9,O   8,Cr  0,O  13)     39.4959         0.002849   
    192. D(C  35,O   8,Cr  0,O  14)    131.3969         0.002849   
    193. D(C   9,O   8,Cr  0,O   1)    131.1835         0.002849   
    194. D(H  38,C   9,O   8,C  35)    106.4483         0.017972   
    195. D(H  38,C   9,O   8,Cr  0)    -73.3794         0.017972   
    196. D(C  11,C   9,O   8,C  35)     -9.8384         0.017972   
    197. D(C  11,C   9,O   8,Cr  0)    170.3339         0.017972   
    198. D(H  10,C   9,O   8,Cr  0)     44.1805         0.017972   
    199. D(H  10,C   9,O   8,C  35)   -135.9917         0.017972   
    200. D(H  12,C  11,C   9,O   8)    -89.2943         0.013086   
    201. D(H  12,C  11,C   9,H  10)     30.6311         0.013086   
    202. D(C  45,C  11,C   9,H  10)    150.2133         0.013086   
    203. D(C  45,C  11,C   9,H  38)    -84.9456         0.013086   
    204. D(C  45,C  11,C   9,O   8)     30.2879         0.013086   
    205. D(H  12,C  11,C   9,H  38)    155.4723         0.013086   
    206. D(C  29,O  13,Cr  0,O  34)    -90.0176         0.004439   
    207. D(C  29,O  13,Cr  0,O  14)    179.9876         0.004439   
    208. D(C  29,O  13,Cr  0,O   1)     -0.0103         0.004439   
    209. D(C  29,O  13,Cr  0,O   8)     89.9958         0.004439   
    210. D(C  30,O  14,O   1,C   5)   -179.9605         0.001500   
    211. D(C  30,O  14,Cr  0,O  34)     90.0548         0.004385   
    212. D(C  30,O  14,Cr  0,O  15)      0.0256         0.004385   
    213. D(C  30,O  14,Cr  0,O  13)   -179.9695         0.004385   
    214. D(C  30,O  14,Cr  0,O   8)    -89.9960         0.004385   
    215. D(C  31,O  15,O  13,C  29)    179.9562         0.001500   
    216. D(C  31,O  15,Cr  0,O  34)    -90.0227         0.004435   
    217. D(C  31,O  15,Cr  0,O   8)     89.9640         0.004435   
    218. D(C  31,O  15,Cr  0,O   1)    179.9702         0.004435   
    219. D(C  31,O  15,Cr  0,O  14)     -0.0277         0.004435   
    220. D(O  13,C  29,C  18,F  25)     59.4544         0.011053   
    221. D(C   6,C  29,C  18,F  28)     -0.0031         0.011053   
    222. D(C   6,C  29,C  18,F  25)   -120.5391         0.011053   
    223. D(C   6,C  29,C  18,F  24)    120.5344         0.011053   
    224. D(C  18,C  29,O  13,Cr  0)   -179.9870         0.058087   
    225. D(C   6,C  29,O  13,Cr  0)      0.0060         0.058087   
    226. D(C  18,C  29,C   6,C   5)    179.9976         0.027065   
    227. D(O  13,C  29,C   6,H   7)   -179.9956         0.027065   
    228. D(O  13,C  29,C  18,F  24)    -59.4721         0.011053   
    229. D(O  13,C  29,C   6,C   5)      0.0050         0.027065   
    230. D(C  18,C  29,C   6,H   7)     -0.0031         0.027065   
    231. D(O  14,C  30,C  16,F  20)     59.4291         0.011056   
    232. D(C  32,C  30,O  14,Cr  0)     -0.0133         0.058125   
    233. D(C  16,C  30,O  14,Cr  0)    179.9854         0.058125   
    234. D(C  32,C  30,C  16,F  21)    120.5726         0.011056   
    235. D(C  32,C  30,C  16,F  20)   -120.5721         0.011056   
    236. D(O  14,C  30,C  16,F  26)   -179.9982         0.011056   
    237. D(O  14,C  30,C  16,F  21)    -59.4262         0.011056   
    238. D(C  32,C  31,C  17,F  23)   -120.5308         0.011049   
    239. D(C  32,C  31,C  17,F  22)    120.5485         0.011049   
    240. D(O  15,C  31,C  17,F  27)   -179.9986         0.011049   
    241. D(C  32,C  31,O  15,Cr  0)      0.0177         0.058161   
    242. D(O  15,C  31,C  17,F  22)    -59.4572         0.011049   
    243. D(C  17,C  31,O  15,Cr  0)   -179.9762         0.058161   
    244. D(O  15,C  31,C  17,F  23)     59.4636         0.011049   
    245. D(H  33,C  32,C  31,C  17)     -0.0059         0.027061   
    246. D(H  33,C  32,C  31,O  15)   -179.9994         0.027061   
    247. D(C  30,C  32,C  31,C  17)    179.9989         0.027061   
    248. D(C  30,C  32,C  31,O  15)      0.0055         0.027061   
    249. D(H  33,C  32,C  30,C  16)     -0.0015         0.027076   
    250. D(H  33,C  32,C  30,O  14)    179.9971         0.027076   
    251. D(C  31,C  32,C  30,C  16)    179.9936         0.027076   
    252. D(C  31,C  32,C  30,O  14)     -0.0078         0.027076   
    253. D(C  37,O  34,O   8,C  35)   -179.7698         0.001500   
    254. D(C  37,O  34,O   8,C   9)      0.0199         0.001500   
    255. D(C  36,O  34,O   8,C  35)     -0.0001         0.001500   
    256. D(C  36,O  34,O   8,C   9)    179.7896         0.001500   
    257. D(C  37,O  34,Cr  0,O  15)    140.4883         0.002847   
    258. D(C  37,O  34,Cr  0,O  14)     48.8179         0.002847   
    259. D(C  37,O  34,Cr  0,O  13)    -39.4760         0.002847   
    260. D(C  37,O  34,Cr  0,O   1)   -131.1636         0.002847   
    261. D(C  36,O  34,Cr  0,O  15)    -39.7267         0.002847   
    262. D(C  36,O  34,Cr  0,O  14)   -131.3970         0.002847   
    263. D(C  36,O  34,Cr  0,O  13)    140.3090         0.002847   
    264. D(C  36,O  34,Cr  0,O   1)     48.6215         0.002847   
    265. D(C  45,C  35,O   8,C   9)    -14.7730         0.017870   
    266. D(C  45,C  35,O   8,Cr  0)    165.0547         0.017870   
    267. D(H  40,C  35,O   8,C   9)    108.3565         0.017870   
    268. D(H  40,C  35,O   8,Cr  0)    -71.8158         0.017870   
    269. D(H  39,C  35,O   8,C   9)   -133.8668         0.017870   
    270. D(H  39,C  35,O   8,Cr  0)     45.9609         0.017870   
    271. D(C  46,C  36,O  34,C  37)     14.4440         0.017870   
    272. D(C  46,C  36,O  34,Cr  0)   -165.3661         0.017870   
    273. D(H  42,C  36,O  34,C  37)   -108.3799         0.017870   
    274. D(H  42,C  36,O  34,Cr  0)     71.8100         0.017870   
    275. D(H  41,C  36,O  34,C  37)    133.8540         0.017870   
    276. D(H  41,C  36,O  34,Cr  0)    -45.9560         0.017870   
    277. D(C  47,C  37,O  34,C  36)     10.1479         0.017964   
    278. D(C  47,C  37,O  34,Cr  0)   -170.0420         0.017964   
    279. D(H  44,C  37,O  34,C  36)   -106.4517         0.017964   
    280. D(H  44,C  37,O  34,Cr  0)     73.3583         0.017964   
    281. D(H  43,C  37,O  34,C  36)    135.9772         0.017964   
    282. D(H  43,C  37,O  34,Cr  0)    -44.2127         0.017964   
    283. D(H  48,C  45,C  35,H  40)    157.5736         0.011481   
    284. D(H  48,C  45,C  35,O   8)    -83.6324         0.011481   
    285. D(C  11,C  45,C  35,H  40)    -85.9966         0.011481   
    286. D(C  11,C  45,C  35,H  39)    149.0772         0.011481   
    287. D(C  11,C  45,C  35,O   8)     32.7975         0.011481   
    288. D(H  48,C  45,C  11,H  50)    -32.2038         0.011594   
    289. D(H  48,C  45,C  11,H  12)   -161.3036         0.011594   
    290. D(H  48,C  45,C  11,C   9)     75.5772         0.011594   
    291. D(C  35,C  45,C  11,H  50)   -146.3269         0.011594   
    292. D(H  48,C  45,C  35,H  39)     32.6474         0.011481   
    293. D(C  35,C  45,C  11,H  12)     84.5734         0.011594   
    294. D(C  35,C  45,C  11,C   9)    -38.5458         0.011594   
    295. D(C  47,C  46,C  36,H  42)     86.0476         0.011557   
    296. D(C  47,C  46,C  36,H  41)   -149.0266         0.011557   
    297. D(C  47,C  46,C  36,O  34)    -32.5969         0.011557   
    298. D(H  53,C  46,C  36,H  42)   -157.3972         0.011557   
    299. D(H  53,C  46,C  36,H  41)    -32.4713         0.011557   
    300. D(H  53,C  46,C  36,O  34)     83.9583         0.011557   
    301. D(H  51,C  47,C  46,H  54)     53.7844         0.011605   
    302. D(H  51,C  47,C  46,H  53)    161.6397         0.011605   
    303. D(H  51,C  47,C  46,C  36)    -83.7044         0.011605   
    304. D(C  37,C  47,C  46,H  54)    176.0067         0.011605   
    305. D(C  37,C  47,C  46,H  53)    -76.1381         0.011605   
    306. D(C  37,C  47,C  46,C  36)     38.5178         0.011605   
    307. D(H  51,C  47,C  37,H  44)   -155.7741         0.013070   
    308. D(H  51,C  47,C  37,H  43)    -30.8963         0.013070   
    309. D(H  51,C  47,C  37,O  34)     88.8559         0.013070   
    310. D(C  46,C  47,C  37,H  44)     84.9401         0.013070   
    311. D(C  46,C  47,C  37,H  43)   -150.1820         0.013070   
    312. D(C  46,C  47,C  37,O  34)    -30.4298         0.013070   
    -----------------------------------------------------------------

Number of atoms                         .... 55
Number of degrees of freedom            .... 312


         *************************************************************
         *                GEOMETRY OPTIMIZATION CYCLE   1            *
         *************************************************************
---------------------------------
CARTESIAN COORDINATES (ANGSTROEM)
---------------------------------
  Cr     0.001002   -0.001271   -0.059572
  O     -0.984483    0.986912    1.280667
  C     -1.788507    1.795126    3.319811
  F     -3.069501    1.551440    3.016918
  F     -1.656233    1.665810    4.641688
  C     -0.864440    0.869266    2.542564
  C     -0.008136    0.014159    3.226096
  H     -0.010977    0.019241    4.304443
  O      1.449296    1.445392   -0.061637
  C      2.865724    1.183741    0.040803
  H      3.100704    0.349393   -0.617310
  C      3.527434    2.506924   -0.246811
  H      3.722957    2.674106   -1.177612
  O      0.977293   -0.975457    1.294413
  O      0.986990   -0.989856   -1.399561
  O     -0.974654    0.972509   -1.414522
  C      1.792528   -1.798143   -3.437992
  C     -1.767078    1.763118   -3.465887
  C      1.771592   -1.765728    3.345260
  F     -1.545451    3.075420    3.013505
  F      1.548895   -3.078447   -3.132078
  F      3.073296   -1.554835   -3.133791
  F     -3.049920    1.522591   -3.169229
  F     -1.525427    3.046159   -3.170958
  F      1.529903   -3.048845    3.050823
  F      3.054116   -1.525036    3.047471
  F      1.661628   -1.668650   -4.759920
  F     -1.626315    1.620803   -4.785810
  F      1.631851   -1.623029    4.665302
  C      0.851520   -0.847138    2.554601
  C      0.867944   -0.872208   -2.661364
  C     -0.847847    0.844265   -2.674460
  C      0.012326   -0.016921   -3.345472
  H      0.015995   -0.021774   -4.423816
  O     -1.446270   -1.449228   -0.056565
  C      1.188959    2.863005   -0.161729
  C     -2.863955   -1.188521   -0.154632
  C     -1.184886   -2.865584    0.048316
  H      3.077384    0.891364    1.079601
  H      0.377010    3.102938    0.525093
  H      0.867800    3.085616   -1.175914
  H     -3.102444   -0.375252    0.531077
  H     -3.087826   -0.868945   -1.169195
  H     -0.351980   -3.102298   -0.611000
  H     -0.890671   -3.075508    1.086660
  C      2.502434    3.515558    0.258657
  C     -3.516600   -2.502317    0.261164
  C     -2.507472   -3.527124   -0.243324
  H      2.514054    3.569094    1.493316
  H      2.614278    4.537183    0.212834
  H      4.475023    2.612140    0.682447
  H     -2.664692   -3.714925   -1.192089
  H     -2.610513   -4.478199    0.631082
  H     -3.578708   -2.524058    1.474176
  H     -4.532200   -2.614490    0.159138

----------------------------
CARTESIAN COORDINATES (A.U.)
----------------------------
  NO LB      ZA    FRAG     MASS         X           Y           Z
   0 Cr   24.0000    0    52.000    0.001893   -0.002401   -0.112574
   1 O     8.0000    0    15.999   -1.860403    1.864993    2.420109
   2 C     6.0000    0    12.011   -3.379788    3.392296    6.273534
   3 F     9.0000    0    18.998   -5.800517    2.931797    5.701149
   4 F     9.0000    0    18.998   -3.129827    3.147925    8.771518
   5 C     6.0000    0    12.011   -1.633554    1.642675    4.804749
   6 C     6.0000    0    12.011   -0.015375    0.026756    6.096437
   7 H     1.0000    0     1.008   -0.020743    0.036361    8.134218
   8 O     8.0000    0    15.999    2.738773    2.731396   -0.116476
   9 C     6.0000    0    12.011    5.415433    2.236947    0.077107
  10 H     1.0000    0     1.008    5.859481    0.660257   -1.166547
  11 C     6.0000    0    12.011    6.665884    4.737400   -0.466405
  12 H     1.0000    0     1.008    7.035368    5.053328   -2.225365
  13 O     8.0000    0    15.999    1.846816   -1.843346    2.446086
  14 O     8.0000    0    15.999    1.865141   -1.870556   -2.644787
  15 O     8.0000    0    15.999   -1.841830    1.837776   -2.673059
  16 C     6.0000    0    12.011    3.387387   -3.397999   -6.496863
  17 C     6.0000    0    12.011   -3.339293    3.331810   -6.549577
  18 C     6.0000    0    12.011    3.347823   -3.336743    6.321626
  19 F     9.0000    0    18.998   -2.920479    5.811701    5.694698
  20 F     9.0000    0    18.998    2.926987   -5.817423   -5.918769
  21 F     9.0000    0    18.998    5.807689   -2.938212   -5.922008
  22 F     9.0000    0    18.998   -5.763513    2.877280   -5.988975
  23 F     9.0000    0    18.998   -2.882638    5.756407   -5.992241
  24 F     9.0000    0    18.998    2.891097   -5.761481    5.765220
  25 F     9.0000    0    18.998    5.771443   -2.881900    5.758886
  26 F     9.0000    0    18.998    3.140021   -3.153292   -8.994945
  27 F     9.0000    0    18.998   -3.073290    3.062875   -9.043870
  28 F     9.0000    0    18.998    3.083751   -3.067080    8.816144
  29 C     6.0000    0    12.011    1.609139   -1.600858    4.827497
  30 C     6.0000    0    12.011    1.640177   -1.648233   -5.029248
  31 C     6.0000    0    12.011   -1.602198    1.595429   -5.053996
  32 C     6.0000    0    12.011    0.023293   -0.031976   -6.322025
  33 H     1.0000    0     1.008    0.030226   -0.041146   -8.359801
  34 O     8.0000    0    15.999   -2.733054   -2.738644   -0.106891
  35 C     6.0000    0    12.011    2.246807    5.410296   -0.305624
  36 C     6.0000    0    12.011   -5.412090   -2.245980   -0.292212
  37 C     6.0000    0    12.011   -2.239110   -5.415169    0.091304
  38 H     1.0000    0     1.008    5.815413    1.684435    2.040150
  39 H     1.0000    0     1.008    0.712446    5.863702    0.992281
  40 H     1.0000    0     1.008    1.639904    5.830970   -2.222155
  41 H     1.0000    0     1.008   -5.862769   -0.709123    1.003591
  42 H     1.0000    0     1.008   -5.835146   -1.642069   -2.209458
  43 H     1.0000    0     1.008   -0.665145   -5.862493   -1.154623
  44 H     1.0000    0     1.008   -1.683124   -5.811868    2.053489
  45 C     6.0000    0    12.011    4.728914    6.643443    0.488791
  46 C     6.0000    0    12.011   -6.645411   -4.728693    0.493528
  47 C     6.0000    0    12.011   -4.738435   -6.665299   -0.459816
  48 H     1.0000    0     1.008    4.750874    6.744611    2.821958
  49 H     1.0000    0     1.008    4.940269    8.574033    0.402197
  50 H     1.0000    0     1.008    8.456568    4.936230    1.289637
  51 H     1.0000    0     1.008   -5.035537   -7.020191   -2.252722
  52 H     1.0000    0     1.008   -4.933154   -8.462570    1.192571
  53 H     1.0000    0     1.008   -6.762778   -4.769778    2.785788
  54 H     1.0000    0     1.008   -8.564617   -4.940670    0.300727

--------------------------------
INTERNAL COORDINATES (ANGSTROEM)
--------------------------------
 Cr     0   0   0     0.000000000000     0.00000000     0.00000000
 O      1   0   0     1.934921924202     0.00000000     0.00000000
 C      2   1   0     2.336188048774   163.04911553     0.00000000
 F      3   2   1     1.338683628791    93.94858034   233.79386211
 F      3   2   1     1.334757047484   142.82606280     0.00000000
 C      2   1   3     1.273041932004   126.25436332     0.00000000
 C      6   2   1     1.389848870318   127.04571489     0.00000000
 H      7   6   2     1.078363009291   119.16150721   179.99224648
 O      1   2   3     2.047045642043    90.00682788   270.04451849
 C      9   1   2     1.444029803632   124.46186398   131.18348483
 H     10   9   1     1.088331690126   107.92630124    44.18053345
 C     10   9   1     1.507114615742   104.95411711   170.33390101
 H     12  10   9     0.965696893114   115.13984990   270.70573022
 O      1   2   3     1.932733152900    91.68756060     0.00000000
 O      1   2   3     1.935211910745   179.98141540   353.45427552
 O      1   2   3     1.932884341662    88.34814097   180.02286633
 C     15   1  14     2.336112285904   163.06323698   180.06058461
 C     16   1   2     2.336898770739   163.12729271   179.92105303
 C     14   1   2     2.336966797678   163.12107032   359.96283138
 F      3   2   1     1.338675880070    93.93698848   126.20285153
 F     17  15   1     1.338700492710    93.94233660   233.75462083
 F     17  15   1     1.338695048167    93.94123790   126.16685451
 F     18  16   1     1.338485634566    93.99348716   126.25709628
 F     18  16   1     1.338496799283    93.99435142   233.88133730
 F     19  14   1     1.338467196453    93.99993471   126.21586508
 F     19  14   1     1.338461925402    93.99230284   233.84174833
 F     17  15   1     1.334690142262   142.82970403   359.96218878
 F     18  16   1     1.335014508455   142.75676340     0.06822718
 F     19  14   1     1.335066055199   142.74717358     0.00000000
 C     14   1   2     1.272933071158   126.35733083     0.00000000
 C     15   1  14     1.272854523467   126.26670791   180.03047689
 C     16   1   2     1.272780490635   126.36118638   179.97017713
 C     31  15   1     1.389820750096   127.04281786     0.00000000
 H     33  31  15     1.078361470958   119.16692842   179.99708980
 O      1   2   3     2.047238231333    90.00799097    89.99373458
 C      9   1   2     1.444790927288   124.47165700   311.37847463
 C     35   1   2     1.444789089926   124.46841035    48.62145132
 C     35   1   2     1.444086518985   124.46068632   228.83640007
 H     10   9   1     1.099720546939   107.69631207   286.62055949
 H     36   9   1     1.090207790844   107.84807078    45.96089432
 H     36   9   1     1.086862323344   108.59382812   288.18419967
 H     37  35   1     1.090174937144   107.85306711   314.04395724
 H     37  35   1     1.087007205379   108.57176049    71.80998839
 H     38  35   1     1.088330594657   107.92967702   315.78729477
 H     38  35   1     1.099449253943   107.71585110    73.35834098
 C     12  10   9     1.524291918665   102.85155942    30.28787222
 C     37  35   1     1.524759128432   104.24166233   194.63390983
 C     38  35   1     1.507289851147   104.92714713   189.95796339
 H     46  12  10     1.235873499192   110.70910983    75.57724347
 H     46  12  10     1.028749477760   124.69766095   180.78665864
 H     12  10   9     1.331358537025   104.39951080   135.65030191
 H     48  38  35     0.979868682600   114.34629272    88.85592534
 H     48  38  35     1.296050103512   105.14683555   222.55558720
 H     47  37  35     1.214795430788   108.03511698    83.95832816
 H     47  37  35     1.026856943474   119.36490825   187.81800362

---------------------------
INTERNAL COORDINATES (A.U.)
---------------------------
 Cr     0   0   0     0.000000000000     0.00000000     0.00000000
 O      1   0   0     3.656472527261     0.00000000     0.00000000
 C      2   1   0     4.414755609522   163.04911553     0.00000000
 F      3   2   1     2.529745438378    93.94858034   233.79386211
 F      3   2   1     2.522325275066   142.82606280     0.00000000
 C      2   1   3     2.405700608485   126.25436332     0.00000000
 C      6   2   1     2.626433732441   127.04571489     0.00000000
 H      7   6   2     2.037810760510   119.16150721   179.99224648
 O      1   2   3     3.868355647098    90.00682788   270.04451849
 C      9   1   2     2.728820858085   124.46186398   131.18348483
 H     10   9   1     2.056648837206   107.92630124    44.18053345
 C     10   9   1     2.848033876182   104.95411711   170.33390101
 H     12  10   9     1.824902656364   115.13984990   270.70573022
 O      1   2   3     3.652336348932    91.68756060     0.00000000
 O      1   2   3     3.657020522411   179.98141540   353.45427552
 O      1   2   3     3.652622054286    88.34814097   180.02286633
 C     15   1  14     4.414612438448   163.06323698   180.06058461
 C     16   1   2     4.416098679394   163.12729271   179.92105303
 C     14   1   2     4.416227231679   163.12107032   359.96283138
 F      3   2   1     2.529730795417    93.93698848   126.20285153
 F     17  15   1     2.529777306567    93.94233660   233.75462083
 F     17  15   1     2.529767017872    93.94123790   126.16685451
 F     18  16   1     2.529371283517    93.99348716   126.25709628
 F     18  16   1     2.529392381776    93.99435142   233.88133730
 F     19  14   1     2.529336440534    93.99993471   126.21586508
 F     19  14   1     2.529326479690    93.99230284   233.84174833
 F     17  15   1     2.522198842520   142.82970403   359.96218878
 F     18  16   1     2.522811805791   142.75676340     0.06822718
 F     19  14   1     2.522909215022   142.74717358     0.00000000
 C     14   1   2     2.405494891300   126.35733083     0.00000000
 C     15   1  14     2.405346457676   126.26670791   180.03047689
 C     16   1   2     2.405206555898   126.36118638   179.97017713
 C     31  15   1     2.626380592922   127.04281786     0.00000000
 H     33  31  15     2.037807853482   119.16692842   179.99708980
 O      1   2   3     3.868719588113    90.00799097    89.99373458
 C      9   1   2     2.730259173348   124.47165700   311.37847463
 C     35   1   2     2.730255701238   124.46841035    48.62145132
 C     35   1   2     2.728928034570   124.46068632   228.83640007
 H     10   9   1     2.078170657560   107.69631207   286.62055949
 H     36   9   1     2.060194153762   107.84807078    45.96089432
 H     36   9   1     2.053872136398   108.59382812   288.18419967
 H     37  35   1     2.060132069267   107.85306711   314.04395724
 H     37  35   1     2.054145923765   108.57176049    71.80998839
 H     38  35   1     2.056646767070   107.92967702   315.78729477
 H     38  35   1     2.077657988096   107.71585110    73.35834098
 C     12  10   9     2.880494274426   102.85155942    30.28787222
 C     37  35   1     2.881377172933   104.24166233   194.63390983
 C     38  35   1     2.848365023107   104.92714713   189.95796339
 H     46  12  10     2.335462449643   110.70910983    75.57724347
 H     46  12  10     1.944054773381   124.69766095   180.78665864
 H     12  10   9     2.515903021036   104.39951080   135.65030191
 H     48  38  35     1.851683457321   114.34629272    88.85592534
 H     48  38  35     2.449179751477   105.14683555   222.55558720
 H     47  37  35     2.295630672927   108.03511698    83.95832816
 H     47  37  35     1.940478401881   119.36490825   187.81800362

---------------------
BASIS SET INFORMATION
---------------------
There are 5 groups of distinct atoms

 Group   1 Type Cr  : 17s11p7d1f contracted to 6s4p4d1f pattern {842111/6311/4111/1}
 Group   2 Type O   : 11s6p2d1f contracted to 5s3p2d1f pattern {62111/411/11/1}
 Group   3 Type C   : 11s6p2d1f contracted to 5s3p2d1f pattern {62111/411/11/1}
 Group   4 Type F   : 11s6p2d1f contracted to 5s3p2d1f pattern {62111/411/11/1}
 Group   5 Type H   : 5s1p contracted to 3s1p pattern {311/1}

Atom   0Cr   basis set group =>   1
Atom   1O    basis set group =>   2
Atom   2C    basis set group =>   3
Atom   3F    basis set group =>   4
Atom   4F    basis set group =>   4
Atom   5C    basis set group =>   3
Atom   6C    basis set group =>   3
Atom   7H    basis set group =>   5
Atom   8O    basis set group =>   2
Atom   9C    basis set group =>   3
Atom  10H    basis set group =>   5
Atom  11C    basis set group =>   3
Atom  12H    basis set group =>   5
Atom  13O    basis set group =>   2
Atom  14O    basis set group =>   2
Atom  15O    basis set group =>   2
Atom  16C    basis set group =>   3
Atom  17C    basis set group =>   3
Atom  18C    basis set group =>   3
Atom  19F    basis set group =>   4
Atom  20F    basis set group =>   4
Atom  21F    basis set group =>   4
Atom  22F    basis set group =>   4
Atom  23F    basis set group =>   4
Atom  24F    basis set group =>   4
Atom  25F    basis set group =>   4
Atom  26F    basis set group =>   4
Atom  27F    basis set group =>   4
Atom  28F    basis set group =>   4
Atom  29C    basis set group =>   3
Atom  30C    basis set group =>   3
Atom  31C    basis set group =>   3
Atom  32C    basis set group =>   3
Atom  33H    basis set group =>   5
Atom  34O    basis set group =>   2
Atom  35C    basis set group =>   3
Atom  36C    basis set group =>   3
Atom  37C    basis set group =>   3
Atom  38H    basis set group =>   5
Atom  39H    basis set group =>   5
Atom  40H    basis set group =>   5
Atom  41H    basis set group =>   5
Atom  42H    basis set group =>   5
Atom  43H    basis set group =>   5
Atom  44H    basis set group =>   5
Atom  45C    basis set group =>   3
Atom  46C    basis set group =>   3
Atom  47C    basis set group =>   3
Atom  48H    basis set group =>   5
Atom  49H    basis set group =>   5
Atom  50H    basis set group =>   5
Atom  51H    basis set group =>   5
Atom  52H    basis set group =>   5
Atom  53H    basis set group =>   5
Atom  54H    basis set group =>   5
---------------------------------
AUXILIARY/J BASIS SET INFORMATION
---------------------------------
There are 5 groups of distinct atoms

 Group   1 Type Cr  : 19s5p5d3f3g contracted to 8s5p5d2f3g pattern {121111111/11111/11111/21/111}
 Group   2 Type O   : 12s5p4d2f1g contracted to 6s4p3d1f1g pattern {711111/2111/211/2/1}
 Group   3 Type C   : 12s5p4d2f1g contracted to 6s4p3d1f1g pattern {711111/2111/211/2/1}
 Group   4 Type F   : 12s5p4d2f1g contracted to 6s4p3d1f1g pattern {711111/2111/211/2/1}
 Group   5 Type H   : 5s2p1d contracted to 3s1p1d pattern {311/2/1}

Atom   0Cr   basis set group =>   1
Atom   1O    basis set group =>   2
Atom   2C    basis set group =>   3
Atom   3F    basis set group =>   4
Atom   4F    basis set group =>   4
Atom   5C    basis set group =>   3
Atom   6C    basis set group =>   3
Atom   7H    basis set group =>   5
Atom   8O    basis set group =>   2
Atom   9C    basis set group =>   3
Atom  10H    basis set group =>   5
Atom  11C    basis set group =>   3
Atom  12H    basis set group =>   5
Atom  13O    basis set group =>   2
Atom  14O    basis set group =>   2
Atom  15O    basis set group =>   2
Atom  16C    basis set group =>   3
Atom  17C    basis set group =>   3
Atom  18C    basis set group =>   3
Atom  19F    basis set group =>   4
Atom  20F    basis set group =>   4
Atom  21F    basis set group =>   4
Atom  22F    basis set group =>   4
Atom  23F    basis set group =>   4
Atom  24F    basis set group =>   4
Atom  25F    basis set group =>   4
Atom  26F    basis set group =>   4
Atom  27F    basis set group =>   4
Atom  28F    basis set group =>   4
Atom  29C    basis set group =>   3
Atom  30C    basis set group =>   3
Atom  31C    basis set group =>   3
Atom  32C    basis set group =>   3
Atom  33H    basis set group =>   5
Atom  34O    basis set group =>   2
Atom  35C    basis set group =>   3
Atom  36C    basis set group =>   3
Atom  37C    basis set group =>   3
Atom  38H    basis set group =>   5
Atom  39H    basis set group =>   5
Atom  40H    basis set group =>   5
Atom  41H    basis set group =>   5
Atom  42H    basis set group =>   5
Atom  43H    basis set group =>   5
Atom  44H    basis set group =>   5
Atom  45C    basis set group =>   3
Atom  46C    basis set group =>   3
Atom  47C    basis set group =>   3
Atom  48H    basis set group =>   5
Atom  49H    basis set group =>   5
Atom  50H    basis set group =>   5
Atom  51H    basis set group =>   5
Atom  52H    basis set group =>   5
Atom  53H    basis set group =>   5
Atom  54H    basis set group =>   5


           ************************************************************
           *        Program running with 32 parallel MPI-processes    *
           *              working on a common directory               *
           ************************************************************
------------------------------------------------------------------------------
                             ORCA STARTUP CALCULATIONS
                           -- RI-GTO INTEGRALS CHOSEN --
------------------------------------------------------------------------------
------------------------------------------------------------------------------
                   ___                                                        
                  /   \      - P O W E R E D   B Y -                         
                 /     \                                                     
                 |  |  |   _    _      __       _____    __    __             
                 |  |  |  | |  | |    /  \     |  _  \  |  |  /  |          
                  \  \/   | |  | |   /    \    | | | |  |  | /  /          
                 / \  \   | |__| |  /  /\  \   | |_| |  |  |/  /          
                |  |  |   |  __  | /  /__\  \  |    /   |      \           
                |  |  |   | |  | | |   __   |  |    \   |  |\   \          
                \     /   | |  | | |  |  |  |  | |\  \  |  | \   \       
                 \___/    |_|  |_| |__|  |__|  |_| \__\ |__|  \__/        
                                                                              
                      - O R C A' S   B I G   F R I E N D -                    
                                      &                                       
                       - I N T E G R A L  F E E D E R -                       
                                                                              
 v1 FN, 2020, v2 2021, v3 2022-2024                                           
------------------------------------------------------------------------------


----------------------
SHARK INTEGRAL PACKAGE
----------------------

Number of atoms                             ...     55
Number of basis functions                   ...   1269
Number of shells                            ...    483
Maximum angular momentum                    ...      3
Integral batch strategy                     ... SHARK/LIBINT Hybrid
RI-J (if used) integral strategy            ... SPLIT-RIJ (Revised 2003 algorithm where possible)
Printlevel                                  ...      1
Contraction scheme used                     ... SEGMENTED contraction
Prescreening option                         ... SCHWARTZ
   Thresh                                   ... 2.500e-11
   Tcut                                     ... 2.500e-12
   Tpresel                                  ... 2.500e-12 
Coulomb Range Separation                    ... NOT USED
Exchange Range Separation                   ... NOT USED
Multipole approximations                    ... NOT USED
Finite Nucleus Model                        ... NOT USED
CABS basis                                  ... NOT available
Auxiliary Coulomb fitting basis             ... AVAILABLE
   # of basis functions in Aux-J            ...   2051
   # of shells in Aux-J                     ...    653
   Maximum angular momentum in Aux-J        ...      4
Auxiliary J/K fitting basis                 ... NOT available
Auxiliary Correlation fitting basis         ... NOT available
Auxiliary 'external' fitting basis          ... NOT available

Checking pre-screening integrals            ... done (  0.1 sec) Dimension = 483
Check shell pair data                       ... done (  0.1 sec)
Shell pair information
Shell pair cut-off parameter TPreSel        ...   2.5e-12
Total number of shell pairs                 ...    116886
Shell pairs after pre-screening             ...     68041
Total number of primitive shell pairs       ...    374585
Primitive shell pairs kept                  ...    133748
          la=0 lb=0:  16342 shell pairs
          la=1 lb=0:  19677 shell pairs
          la=1 lb=1:   5959 shell pairs
          la=2 lb=0:   9854 shell pairs
          la=2 lb=1:   6122 shell pairs
          la=2 lb=2:   1530 shell pairs
          la=3 lb=0:   4259 shell pairs
          la=3 lb=1:   2736 shell pairs
          la=3 lb=2:   1283 shell pairs
          la=3 lb=3:    279 shell pairs

Calculating one electron integrals          ... done (  0.1 sec)
done (  0.7 sec)
Calculating Nuclear repulsion               ... done (  0.0 sec) ENN=   5787.414957253774 Eh

Diagonalization of the overlap matrix:
Smallest eigenvalue                        ... 3.558e-05
Time for diagonalization                   ...    0.193 sec
Threshold for overlap eigenvalues          ... 1.000e-07
Number of eigenvalues below threshold      ... 0
Time for construction of square roots      ...    0.209 sec
Total time needed                          ...    0.493 sec

-------------------
DFT GRID GENERATION
-------------------

General Integration Accuracy     IntAcc      ... 4.959
Radial Grid Type                 RadialGrid  ... OptM3 with GC (2021)
Angular Grid (max. ang.)         AngularGrid ... 6 (Lebedev-590)
Angular grid pruning method      GridPruning ... 4 (adaptive)
Weight generation scheme         WeightScheme... mBecke (2022)
Basis function cutoff            BFCut       ... 1.0000e-11
Integration weight cutoff        WCut        ... 1.0000e-14
Partially contracted basis set               ... off
Rotationally invariant grid construction     ... off
Angular grids for H and He will be reduced by one unit
Core-polarized basis detected: some atoms will have their core
                               angular grid increased.

Total number of grid points                  ...   689637
Total number of batches                      ...    10799
Average number of points per batch           ...       63
Average number of grid points per atom       ...    12539

--------------------
COSX GRID GENERATION
--------------------

GRIDX 1
-------
General Integration Accuracy     IntAcc      ... 4.020
Radial Grid Type                 RadialGrid  ... OptM3 with GC (2021)
Angular Grid (max. ang.)         AngularGrid ... 2 (Lebedev-110)
Angular grid pruning method      GridPruning ... 4 (adaptive)
Weight generation scheme         WeightScheme... mBecke (2022)
Basis function cutoff            BFCut       ... 1.0000e-11
Integration weight cutoff        WCut        ... 1.0000e-14
Partially contracted basis set               ... on
Rotationally invariant grid construction     ... off
Angular grids for H and He will be reduced by one unit
Core-polarized basis detected: some atoms will have their core
                               angular grid increased.

Total number of grid points                  ...    80961
Total number of batches                      ...      663
Average number of points per batch           ...      122
Average number of grid points per atom       ...     1472
UseSFitting                                  ... on

GRIDX 2
-------
General Integration Accuracy     IntAcc      ... 4.338
Radial Grid Type                 RadialGrid  ... OptM3 with GC (2021)
Angular Grid (max. ang.)         AngularGrid ... 3 (Lebedev-194)
Angular grid pruning method      GridPruning ... 4 (adaptive)
Weight generation scheme         WeightScheme... mBecke (2022)
Basis function cutoff            BFCut       ... 1.0000e-11
Integration weight cutoff        WCut        ... 1.0000e-14
Partially contracted basis set               ... on
Rotationally invariant grid construction     ... off
Angular grids for H and He will be reduced by one unit
Core-polarized basis detected: some atoms will have their core
                               angular grid increased.

Total number of grid points                  ...   171876
Total number of batches                      ...     1374
Average number of points per batch           ...      125
Average number of grid points per atom       ...     3125
UseSFitting                                  ... on

GRIDX 3
-------
General Integration Accuracy     IntAcc      ... 4.871
Radial Grid Type                 RadialGrid  ... OptM3 with GC (2021)
Angular Grid (max. ang.)         AngularGrid ... 4 (Lebedev-302)
Angular grid pruning method      GridPruning ... 4 (adaptive)
Weight generation scheme         WeightScheme... mBecke (2022)
Basis function cutoff            BFCut       ... 1.0000e-11
Integration weight cutoff        WCut        ... 1.0000e-14
Partially contracted basis set               ... on
Rotationally invariant grid construction     ... off
Angular grids for H and He will be reduced by one unit
Core-polarized basis detected: some atoms will have their core
                               angular grid increased.

Total number of grid points                  ...   314708
Total number of batches                      ...     2487
Average number of points per batch           ...      126
Average number of grid points per atom       ...     5722
UseSFitting                                  ... on
Initializing property integral containers    ... done (  0.1 sec)

SHARK setup successfully completed in  12.0 seconds

Maximum memory used throughout the entire STARTUP-calculation: 211.0 MB


           ************************************************************
           *        Program running with 32 parallel MPI-processes    *
           *              working on a common directory               *
           ************************************************************
-------------------------------------------------------------------------------
                                 ORCA GUESS
                   Start orbitals & Density for SCF / CASSCF
-------------------------------------------------------------------------------

------------
SCF SETTINGS
------------
Hamiltonian:
 Density Functional     Method          .... DFT(GTOs)
 Exchange Functional    Exchange        .... PBE
   PBE kappa parameter   XKappa         ....  0.804000
   PBE mue parameter    XMuePBE         ....  0.219520
 Correlation Functional Correlation     .... PBE
   PBE beta parameter  CBetaPBE         ....  0.066725
 LDA part of GGA corr.  LDAOpt          .... PW91-LDA
 Gradients option       PostSCFGGA      .... off
 Hybrid DFT is turned on
   Fraction HF Exchange ScalHFX         ....  0.250000
   Scaling of DF-GGA-X  ScalDFX         ....  0.750000
   Scaling of DF-GGA-C  ScalDFC         ....  1.000000
   Scaling of DF-LDA-C  ScalLDAC        ....  1.000000
   Perturbative correction              ....  0.000000
   NL short-range parameter             ....  6.900000
 RI-approximation to the Coulomb term is turned on
   Number of AuxJ basis functions       .... 2051
   RIJ-COSX (HFX calculated with COS-X)).... on


General Settings:
 Integral files         IntName         .... HIDGUX-S5
 Hartree-Fock type      HFTyp           .... UHF
 Total Charge           Charge          ....    0
 Multiplicity           Mult            ....    3
 Number of Electrons    NEL             ....  306
 Basis Dimension        Dim             .... 1269
 Nuclear Repulsion      ENuc            ....   5787.4149572538 Eh

Convergence Acceleration:
 AO-DIIS                CNVDIIS         .... on
   Start iteration      DIISMaxIt       ....    12
   Startup error        DIISStart       ....  0.200000
   # of expansion vecs  DIISMaxEq       ....     5
   Bias factor          DIISBfac        ....   1.050
   Max. coefficient     DIISMaxC        ....  10.000
 MO-DIIS                CNVKDIIS        .... off
 Trust-Rad. Augm. Hess. CNVTRAH         .... auto
   Auto Start mean grad. ratio tolernc. ....  1.125000
   Auto Start start iteration           ....    50
   Auto Start num. interpolation iter.  ....    10
   Max. Number of Micro iterations      ....    24
   Max. Number of Macro iterations      .... Maxiter - #DIIS iter
   Number of Davidson start vectors     ....     2
   Converg. threshold    (grad. norm)   ....   1.000e-05
   Grad. Scal. Fac. for Micro threshold ....   0.100
   Minimum threshold for Micro iter.    ....   1.000e-02
   NR start threshold (gradient norm)   ....   1.000e-04
   Initial trust radius                 ....   0.400
   Minimum AH scaling param. (alpha)    ....   1.000
   Maximum AH scaling param. (alpha)    .... 1000.000
   Quad. conv. algorithm                .... NR
   White noise on init. David. guess    .... on
   Maximum white noise                  ....   0.010
   Pseudo random numbers                .... off
   Inactive MOs                         .... canonical
   Orbital update algorithm             .... Taylor
   Preconditioner                       .... Diag
   Full preconditioner red. dimension   ....   250
 SOSCF                  CNVSOSCF        .... on
   Start iteration      SOSCFMaxIt      ....   150
   Startup grad/error   SOSCFStart      ....  0.003300
   Hessian update       SOSCFHessUp     .... L-BFGS
 Level Shifting         CNVShift        .... on
   Level shift para.    LevelShift      ....    0.2500
   Turn off err/grad.   ShiftErr        ....    0.0010
 Zerner damping         CNVZerner       .... off
 Static damping         CNVDamp         .... on
   Fraction old density DampFac         ....    0.7000
   Max. Damping (<1)    DampMax         ....    0.9800
   Min. Damping (>=0)   DampMin         ....    0.0000
   Turn off err/grad.   DampErr         ....    0.1000

SCF Procedure:
 Maximum # iterations   MaxIter         ....   125
 SCF integral mode      SCFMode         .... Direct
   Integral package                     .... SHARK and LIBINT hybrid scheme
 Reset frequency        DirectResetFreq ....    20
 Integral Threshold     Thresh          ....  2.500e-11 Eh
 Primitive CutOff       TCut            ....  2.500e-12 Eh

Convergence Tolerance:
 Convergence Check Mode ConvCheckMode   .... Total+1el-Energy
 Convergence forced     ConvForced      .... 0
 Energy Change          TolE            ....  1.000e-08 Eh
 1-El. energy change                    ....  1.000e-05 Eh
 Orbital Gradient       TolG            ....  1.000e-05
 Orbital Rotation angle TolX            ....  1.000e-05
 DIIS Error             TolErr          ....  5.000e-07

------------------------------
INITIAL GUESS: MODEL POTENTIAL
------------------------------
Loading Hartree-Fock densities                     ... done
Calculating cut-offs                               ... done
Initializing the effective Hamiltonian             ... done
Setting up the integral package (SHARK)            ... done
done (   0.3 sec)
Making the grid                                    ... done (   0.3 sec)
Mapping shells                                     ... done
Starting the XC term evaluation                    ... done (   0.2 sec)
  promolecular density results
     # of electrons  =    306.017335043
     EX              =   -313.841756089
     EC              =    -10.807185302
     EX+EC           =   -324.648941391
done (   0.2 sec)
done (   0.2 sec)
Back transforming the eigenvectors                 ... done (   0.1 sec)
done
                      ------------------
                      INITIAL GUESS DONE (   2.0 sec)
                      ------------------
             **** ENERGY FILE WAS UPDATED (HIDGUX-S5.en.tmp) ****
Finished Guess after   3.3 sec
Maximum memory used throughout the entire GUESS-calculation: 127.5 MB


           ************************************************************
           *        Program running with 32 parallel MPI-processes    *
           *              working on a common directory               *
           ************************************************************

-------------------------------------------------------------------------------------------
                                      ORCA LEAN-SCF
                              memory conserving SCF solver
-------------------------------------------------------------------------------------------

----------------------------------------D-I-I-S--------------------------------------------
Iteration    Energy (Eh)           Delta-E    RMSDP     MaxDP     DIISErr   Damp  Time(sec)
-------------------------------------------------------------------------------------------
               ***  Starting incremental Fock matrix formation  ***
    1    -3388.2024037080764174     0.00e+00  3.72e-04  3.91e-02  1.23e-01  0.700  18.5
Warning: op=1 Small HOMO/LUMO gap (   0.083) - skipping pre-diagonalization
         Will do a full diagonalization
    2    -3388.6152906950310353    -4.13e-01  2.37e-04  2.47e-02  4.51e-02  0.700  11.2
                               ***Turning on AO-DIIS***
    3    -3388.7663103853255961    -1.51e-01  8.92e-05  1.98e-02  1.73e-02  0.700   9.0
    4    -3388.8609565302185729    -9.46e-02  1.97e-04  4.06e-02  1.15e-02  0.000   8.4
    5    -3389.0765039613497720    -2.16e-01  5.34e-05  1.51e-02  6.99e-03  0.000   8.9
    6    -3389.0779257625354148    -1.42e-03  3.47e-05  1.53e-02  1.19e-02  0.000   8.3
    7    -3389.0792493459312027    -1.32e-03  2.25e-05  1.04e-02  5.94e-03  0.000   8.6
    8    -3389.0802614559934227    -1.01e-03  2.30e-05  1.11e-02  3.86e-03  0.000   8.1
    9    -3389.0812638214474646    -1.00e-03  2.32e-05  1.18e-02  3.72e-03  0.000   7.6
   10    -3389.0822257592199094    -9.62e-04  2.94e-05  1.45e-02  4.14e-03  0.000   7.6
                              *** Initializing SOSCF ***
---------------------------------------S-O-S-C-F--------------------------------------
Iteration    Energy (Eh)           Delta-E    RMSDP     MaxDP     MaxGrad    Time(sec)
--------------------------------------------------------------------------------------
   11    -3389.0833525714233474    -1.13e-03  2.66e-05  1.24e-02  3.05e-03     9.0
               *** Restarting incremental Fock matrix formation ***
   12    -3389.0842837488662553    -9.31e-04  3.80e-05  2.09e-02  8.37e-03    15.7
               *** Scaled step length from 0.331255 to 0.200000 ***
   13    -3389.0852501138078878    -9.66e-04  1.27e-04  5.21e-02  8.77e-03    12.2
   14    -3389.0865188112757096    -1.27e-03  3.37e-05  7.31e-03  7.47e-03    13.4
   15    -3389.0869404426803158    -4.22e-04  1.44e-05  5.92e-03  9.84e-04    11.5
   16    -3389.0869631898031002    -2.27e-05  1.17e-05  5.02e-03  1.13e-03    10.6
   17    -3389.0870127142234196    -4.95e-05  2.98e-06  8.94e-04  4.23e-04    10.4
   18    -3389.0870157104809550    -3.00e-06  1.81e-06  5.86e-04  2.67e-04     9.3
   19    -3389.0870175942009155    -1.88e-06  1.31e-06  4.62e-04  1.41e-04     9.8
   20    -3389.0870180102820086    -4.16e-07  8.39e-07  2.70e-04  6.44e-05     8.3
   21    -3389.0870180320389409    -2.18e-08  4.73e-07  1.26e-04  4.49e-05     7.6
   22    -3389.0870180863739733    -5.43e-08  3.32e-07  7.73e-05  1.96e-05     7.3
   23    -3389.0870183368906510    -2.51e-07  2.61e-07  7.05e-05  1.86e-05     7.0
   24    -3389.0870182964272317     4.05e-08  2.48e-07  4.01e-05  4.58e-06     6.7
   25    -3389.0870182519529408     4.45e-08  2.17e-07  4.53e-05  5.75e-06     6.4
   26    -3389.0870183205706780    -6.86e-08  2.31e-07  4.80e-05  1.45e-06     6.1
                  *** Gradient check signals convergence ***

               *****************************************************
               *                     SUCCESS                       *
               *           SCF CONVERGED AFTER  26 CYCLES          *
               *****************************************************

 done (   21.006 sec)
Old exchange energy                            :    -79.367945645 Eh
New exchange energy                            :    -79.367948328 Eh
Exchange energy change after final integration :     -0.000002683 Eh
Total energy after final integration           :  -3389.087021003 Eh
             **** ENERGY FILE WAS UPDATED (HIDGUX-S5.en.tmp) ****

----------------
TOTAL SCF ENERGY
----------------

Total Energy       :      -3389.08702100328583 Eh          -92221.74630 eV

Components:
Nuclear Repulsion  :       5787.41495725377445 Eh          157483.56730 eV
Electronic Energy  :      -9176.50197557434512 Eh         -249705.31353 eV
One Electron Energy:     -16215.01683352818509 Eh         -441233.03989 eV
Two Electron Energy:       7038.51485795384087 Eh          191527.72637 eV

Virial components:
Potential Energy   :      -6768.15605605870132 Eh         -184170.88935 eV
Kinetic Energy     :       3379.06903505541550 Eh           91949.14305 eV
[...]
140:   1518.07   0.000000    0.00  0.000000  (-0.000021  0.000087 -0.000282)
141:   1520.05   0.004779   24.15  0.000981  (-0.005944  0.005992 -0.030165)
142:   1528.36   0.000312    1.58  0.000064  (-0.005677 -0.005609 -0.000123)
143:   1529.34   0.000000    0.00  0.000000  (-0.000080  0.000195 -0.000069)
144:   1557.17   0.000102    0.51  0.000020  (-0.003190  0.003198  0.000077)
145:   1559.80   0.027721  140.09  0.005546  (-0.052654  0.052661  0.000639)
146:   1587.20   0.000001    0.01  0.000000  (-0.000001  0.000012 -0.000445)
147:   3070.74   0.002364   11.95  0.000240  ( 0.005828  0.014291  0.001423)
148:   3071.22   0.001732    8.75  0.000176  (-0.010308 -0.008347  0.000076)
149:   3072.44   0.001978    9.99  0.000201  ( 0.008544 -0.011292 -0.000590)
150:   3072.61   0.006294   31.81  0.000639  (-0.020364  0.014966  0.000738)
151:   3077.31   0.000154    0.78  0.000016  (-0.003019 -0.002237 -0.001236)
152:   3077.45   0.000053    0.27  0.000005  ( 0.000680  0.000386 -0.002191)
153:   3079.22   0.000948    4.79  0.000096  ( 0.000496  0.001664 -0.009647)
154:   3079.28   0.003100   15.67  0.000314  (-0.000657  0.001082 -0.017680)
155:   3133.34   0.002646   13.37  0.000264  ( 0.010535  0.012331 -0.000682)
156:   3133.53   0.001510    7.63  0.000150  (-0.009322 -0.007944 -0.000582)
157:   3137.69   0.001484    7.50  0.000148  (-0.008844  0.006766 -0.004856)
158:   3137.82   0.002734   13.82  0.000272  (-0.010226  0.011133 -0.006590)
159:   3149.37   0.000069    0.35  0.000007  ( 0.001910  0.001773 -0.000053)
160:   3149.42   0.000002    0.01  0.000000  (-0.000174 -0.000427 -0.000007)
161:   3152.40   0.000413    2.09  0.000041  ( 0.000118 -0.000430 -0.006379)
162:   3152.48   0.001942    9.81  0.000192  ( 0.000544 -0.000468 -0.013845)
163:   3270.41   0.000302    1.52  0.000029  ( 0.000023 -0.000020 -0.005364)
164:   3270.55   0.000156    0.79  0.000015  ( 0.000016 -0.000015 -0.003862)

* The epsilon (eps) is given for a Dirac delta lineshape.
** The dipole moment derivative (T) already includes vibrational overlap.

The first frequency considered to be a vibration is 7
The total number of vibrations considered is 158


--------------------------
THERMOCHEMISTRY AT 298.15K
--------------------------

Temperature         ...   298.15 K
Pressure            ...     1.00 atm
Total Mass          ...   610.31 AMU
Quasi RRHO          ...     True
Cut-Off Frequency   ...     1.00 cm^-1

Throughout the following assumptions are being made:
  (1) The electronic state is orbitally nondegenerate
      but the spin degeneracy is treated
  (2) There are no thermally accessible electronically excited states
  (3) Hindered rotations indicated by low frequency modes are not
      treated as such but are treated as vibrations and this may
      cause some error
  (4) All equations used are the standard statistical mechanics
      equations for an ideal gas
  (5) All vibrations are strictly harmonic

freq.      19.79  E(vib)   ...       0.56 
freq.      22.95  E(vib)   ...       0.56 
freq.      25.65  E(vib)   ...       0.56 
freq.      25.69  E(vib)   ...       0.56 
freq.      27.56  E(vib)   ...       0.55 
freq.      28.36  E(vib)   ...       0.55 
freq.      29.72  E(vib)   ...       0.55 
freq.      32.72  E(vib)   ...       0.55 
freq.      36.37  E(vib)   ...       0.54 
freq.      53.09  E(vib)   ...       0.52 
freq.      53.50  E(vib)   ...       0.52 
freq.      53.89  E(vib)   ...       0.52 
freq.      56.83  E(vib)   ...       0.51 
freq.      74.53  E(vib)   ...       0.49 
freq.      89.84  E(vib)   ...       0.47 
freq.     100.40  E(vib)   ...       0.46 
freq.     113.29  E(vib)   ...       0.45 
freq.     114.12  E(vib)   ...       0.44 
freq.     119.75  E(vib)   ...       0.44 
freq.     129.27  E(vib)   ...       0.43 
freq.     136.18  E(vib)   ...       0.42 
freq.     147.46  E(vib)   ...       0.41 
freq.     168.19  E(vib)   ...       0.38 
freq.     174.47  E(vib)   ...       0.38 
freq.     178.30  E(vib)   ...       0.37 
freq.     182.98  E(vib)   ...       0.37 
freq.     187.05  E(vib)   ...       0.36 
freq.     197.34  E(vib)   ...       0.35 
freq.     216.39  E(vib)   ...       0.34 
freq.     234.25  E(vib)   ...       0.32 
freq.     255.50  E(vib)   ...       0.30 
freq.     258.04  E(vib)   ...       0.30 
freq.     258.16  E(vib)   ...       0.30 
freq.     258.66  E(vib)   ...       0.30 
freq.     259.90  E(vib)   ...       0.30 
freq.     260.82  E(vib)   ...       0.30 
freq.     295.21  E(vib)   ...       0.27 
freq.     308.38  E(vib)   ...       0.26 
freq.     318.69  E(vib)   ...       0.25 
freq.     327.68  E(vib)   ...       0.24 
freq.     339.64  E(vib)   ...       0.23 
freq.     359.72  E(vib)   ...       0.22 
freq.     363.55  E(vib)   ...       0.22 
freq.     389.71  E(vib)   ...       0.20 
freq.     394.93  E(vib)   ...       0.20 
freq.     427.32  E(vib)   ...       0.18 
freq.     476.09  E(vib)   ...       0.15 
freq.     512.64  E(vib)   ...       0.13 
freq.     515.47  E(vib)   ...       0.13 
freq.     516.89  E(vib)   ...       0.13 
freq.     532.66  E(vib)   ...       0.13 
freq.     535.17  E(vib)   ...       0.13 
freq.     541.17  E(vib)   ...       0.12 
freq.     554.43  E(vib)   ...       0.12 
freq.     574.10  E(vib)   ...       0.11 
freq.     574.28  E(vib)   ...       0.11 
freq.     578.88  E(vib)   ...       0.11 
freq.     610.62  E(vib)   ...       0.10 
freq.     613.46  E(vib)   ...       0.10 
freq.     617.89  E(vib)   ...       0.09 
freq.     683.72  E(vib)   ...       0.07 
freq.     697.72  E(vib)   ...       0.07 
freq.     703.27  E(vib)   ...       0.07 
freq.     705.74  E(vib)   ...       0.07 
freq.     706.76  E(vib)   ...       0.07 
freq.     712.07  E(vib)   ...       0.07 
freq.     755.17  E(vib)   ...       0.06 
freq.     756.31  E(vib)   ...       0.06 
freq.     756.76  E(vib)   ...       0.06 
freq.     758.32  E(vib)   ...       0.06 
freq.     833.69  E(vib)   ...       0.04 
freq.     834.63  E(vib)   ...       0.04 
freq.     844.44  E(vib)   ...       0.04 
freq.     845.00  E(vib)   ...       0.04 
freq.     863.48  E(vib)   ...       0.04 
freq.     863.87  E(vib)   ...       0.04 
freq.     879.86  E(vib)   ...       0.04 
freq.     880.15  E(vib)   ...       0.04 
freq.     915.03  E(vib)   ...       0.03 
freq.     924.53  E(vib)   ...       0.03 
freq.     924.80  E(vib)   ...       0.03 
freq.     928.04  E(vib)   ...       0.03 
freq.     933.34  E(vib)   ...       0.03 
freq.     947.97  E(vib)   ...       0.03 
freq.     948.09  E(vib)   ...       0.03 
freq.     970.07  E(vib)   ...       0.03 
freq.     978.90  E(vib)   ...       0.03 
freq.     979.95  E(vib)   ...       0.02 
freq.    1060.82  E(vib)   ...       0.02 
freq.    1061.61  E(vib)   ...       0.02 
freq.    1083.33  E(vib)   ...       0.02 
freq.    1086.67  E(vib)   ...       0.02 
freq.    1129.56  E(vib)   ...       0.01 
freq.    1139.75  E(vib)   ...       0.01 
freq.    1152.64  E(vib)   ...       0.01 
freq.    1153.75  E(vib)   ...       0.01 
freq.    1166.86  E(vib)   ...       0.01 
freq.    1168.69  E(vib)   ...       0.01 
freq.    1172.06  E(vib)   ...       0.01 
freq.    1175.24  E(vib)   ...       0.01 
freq.    1176.30  E(vib)   ...       0.01 
freq.    1178.37  E(vib)   ...       0.01 
freq.    1179.09  E(vib)   ...       0.01 
freq.    1201.73  E(vib)   ...       0.01 
freq.    1201.85  E(vib)   ...       0.01 
freq.    1204.92  E(vib)   ...       0.01 
freq.    1205.38  E(vib)   ...       0.01 
freq.    1212.72  E(vib)   ...       0.01 
freq.    1217.29  E(vib)   ...       0.01 
freq.    1234.51  E(vib)   ...       0.01 
freq.    1258.61  E(vib)   ...       0.01 
freq.    1267.27  E(vib)   ...       0.01 
freq.    1267.37  E(vib)   ...       0.01 
freq.    1275.26  E(vib)   ...       0.01 
freq.    1276.28  E(vib)   ...       0.01 
freq.    1277.84  E(vib)   ...       0.01 
freq.    1281.63  E(vib)   ...       0.01 
freq.    1324.39  E(vib)   ...       0.01 
freq.    1324.50  E(vib)   ...       0.01 
freq.    1350.13  E(vib)   ...       0.01 
freq.    1350.23  E(vib)   ...       0.01 
freq.    1382.42  E(vib)   ...       0.01 
freq.    1382.67  E(vib)   ...       0.01 
freq.    1387.79  E(vib)   ...       0.00 
freq.    1402.69  E(vib)   ...       0.00 
freq.    1403.42  E(vib)   ...       0.00 
freq.    1481.54  E(vib)   ...       0.00 
freq.    1481.60  E(vib)   ...       0.00 
freq.    1490.28  E(vib)   ...       0.00 
freq.    1491.61  E(vib)   ...       0.00 
freq.    1494.23  E(vib)   ...       0.00 
freq.    1494.61  E(vib)   ...       0.00 
freq.    1500.20  E(vib)   ...       0.00 
freq.    1518.07  E(vib)   ...       0.00 
freq.    1520.05  E(vib)   ...       0.00 
freq.    1528.36  E(vib)   ...       0.00 
freq.    1529.34  E(vib)   ...       0.00 
freq.    1557.17  E(vib)   ...       0.00 
freq.    1559.80  E(vib)   ...       0.00 
freq.    1587.20  E(vib)   ...       0.00 
freq.    3070.74  E(vib)   ...       0.00 
freq.    3071.22  E(vib)   ...       0.00 
freq.    3072.44  E(vib)   ...       0.00 
freq.    3072.61  E(vib)   ...       0.00 
freq.    3077.31  E(vib)   ...       0.00 
freq.    3077.45  E(vib)   ...       0.00 
freq.    3079.22  E(vib)   ...       0.00 
freq.    3079.28  E(vib)   ...       0.00 
freq.    3133.34  E(vib)   ...       0.00 
freq.    3133.53  E(vib)   ...       0.00 
freq.    3137.69  E(vib)   ...       0.00 
freq.    3137.82  E(vib)   ...       0.00 
freq.    3149.37  E(vib)   ...       0.00 
freq.    3149.42  E(vib)   ...       0.00 
freq.    3152.40  E(vib)   ...       0.00 
freq.    3152.48  E(vib)   ...       0.00 
freq.    3270.41  E(vib)   ...       0.00 
freq.    3270.55  E(vib)   ...       0.00 

------------
INNER ENERGY
------------

The inner energy is: U= E(el) + E(ZPE) + E(vib) + E(rot) + E(trans)
    E(el)   - is the total energy from the electronic structure calculation
              = E(kin-el) + E(nuc-el) + E(el-el) + E(nuc-nuc)
    E(ZPE)  - the the zero temperature vibrational energy from the frequency calculation
    E(vib)  - the the finite temperature correction to E(ZPE) due to population
              of excited vibrational states
    E(rot)  - is the rotational thermal energy
    E(trans)- is the translational thermal energy

Summary of contributions to the inner energy U:
Electronic energy                ...  -3389.20432971 Eh
Zero point energy                ...      0.37290914 Eh     234.00 kcal/mol
Thermal vibrational correction   ...      0.03399382 Eh      21.33 kcal/mol
Thermal rotational correction    ...      0.00141627 Eh       0.89 kcal/mol
Thermal translational correction ...      0.00141627 Eh       0.89 kcal/mol
-----------------------------------------------------------------------
Total thermal energy                  -3388.79459421 Eh


Summary of corrections to the electronic energy:
(perhaps to be used in another calculation)
Total thermal correction                  0.03682636 Eh      23.11 kcal/mol
Non-thermal (ZPE) correction              0.37290914 Eh     234.00 kcal/mol
-----------------------------------------------------------------------
Total correction                          0.40973550 Eh     257.11 kcal/mol


--------
ENTHALPY
--------

The enthalpy is H = U + kB*T
                kB is Boltzmann's constant
Total thermal energy              ...  -3388.79459421 Eh 
Thermal Enthalpy correction       ...      0.00094421 Eh       0.59 kcal/mol
-----------------------------------------------------------------------
Total Enthalpy                    ...  -3388.79365000 Eh


Note: Only C1 symmetry has been detected, increase convergence thresholds 
      if your molecule has a higher symmetry. Symmetry factor of 1.0 is   
      used for the rotational entropy correction. 
 

Note: Rotational entropy computed according to Herzberg 
Infrared and Raman Spectra, Chapter V,1, Van Nostrand Reinhold, 1945 
Point Group:  C1, Symmetry Number:   1  
Rotational constants in cm-1:     0.003782     0.002691     0.002376 

Vibrational entropy computed according to the QRRHO of S. Grimme
Chem.Eur.J. 2012 18 9955 using a reference frequency of 100.0 cm-1


-------
ENTROPY
-------

The entropy contributions are T*S = T*(S(el)+S(vib)+S(rot)+S(trans))
     S(el)   - electronic entropy
     S(vib)  - vibrational entropy
     S(rot)  - rotational entropy
     S(trans)- translational entropy
The entropies will be listed as multiplied by the temperature to get
units of energy

Electronic entropy                ...      0.00103729 Eh      0.65 kcal/mol
Vibrational entropy               ...      0.06310475 Eh     39.60 kcal/mol
Rotational entropy                ...      0.01779029 Eh     11.16 kcal/mol
Translational entropy             ...      0.02143299 Eh     13.45 kcal/mol
-----------------------------------------------------------------------
Final entropy term                ...      0.10336533 Eh     64.86 kcal/mol

In case the symmetry of your molecule has not been determined correctly
or in case you have a reason to use a different symmetry number we print 
out the resulting rotational entropy values for sn=1,12:

 non-linear molecules -----------------------------------
|  sn= 1 | S(rot)=       0.01779029 Eh     11.16 kcal/mol|
|  sn= 2 | S(rot)=       0.01713583 Eh     10.75 kcal/mol|
|  sn= 3 | S(rot)=       0.01675300 Eh     10.51 kcal/mol|
|  sn= 4 | S(rot)=       0.01648138 Eh     10.34 kcal/mol|
|  sn= 5 | S(rot)=       0.01627069 Eh     10.21 kcal/mol|
|  sn= 6 | S(rot)=       0.01609854 Eh     10.10 kcal/mol|
|  sn= 7 | S(rot)=       0.01595300 Eh     10.01 kcal/mol|
|  sn= 8 | S(rot)=       0.01582692 Eh      9.93 kcal/mol|
|  sn= 9 | S(rot)=       0.01571571 Eh      9.86 kcal/mol|
|  sn=10 | S(rot)=       0.01561623 Eh      9.80 kcal/mol|
|  sn=11 | S(rot)=       0.01552624 Eh      9.74 kcal/mol|
|  sn=12 | S(rot)=       0.01544409 Eh      9.69 kcal/mol|
 linear molecules ---------------------------------------
|  Dinfh | S(rot)=       0.01103105 Eh      6.92 kcal/mol|
|  Cinfv | S(rot)=       0.01168551 Eh      7.33 kcal/mol|
 --------------------------------------------------------


-------------------
GIBBS FREE ENERGY
-------------------

The Gibbs free energy is G = H - T*S

Total enthalpy                    ...  -3388.79365000 Eh 
Total entropy correction          ...     -0.10336533 Eh    -64.86 kcal/mol
-----------------------------------------------------------------------
Final Gibbs free energy         ...  -3388.89701533 Eh

For completeness - the Gibbs free energy minus the electronic energy
G-E(el)                           ...      0.30731438 Eh    192.84 kcal/mol


Maximum memory used throughout the entire PROP-calculation: 1921.9 MB

--------------------------------
SUGGESTED CITATIONS FOR THIS RUN
--------------------------------

Below you find a list of papers that are relevant to this ORCA run
We neither can nor want to force you to cite these papers, but we appreciate if you do
You receive ORCA, which is the product of decades of hard work by many enthusiastic individuals, for free
The only thing we kindly ask in return is that you cite our papers,
We deeply appreciate it, if you show your appreciation for ORCA by not just citing the generic ORCA reference.

Please note that relegating all ORCA citations to the supporting information does *not* help us.
SI sections are not indexed - citations you put there will not count into any citation statistics
But we need these citations in order to attract the funding resources that allow us to do what we are doing

Therefore, if you are a happy ORCA user, please consider citing a few of the papers listed below in the main body of your paper

In addition to the list printed below, the program has created the file HIDGUX-S5.bibtex that contains the list in bibtex format
You can import this file easily into all common literature databanks and citation aid programs


List of essential papers. We consider these as the minimum necessary citations

  1. Neese,F.
     Software update: the ORCA program system, version 5.0
     WIRES Comput. Molec. Sci., 2022 12(1)e1606
     doi.org/10.1002/wcms.1606

List of papers to cite with high priority. The work reported in these papers was absolutely
necessary for this run to complete.
Our perspective: the developers of density functionals and basis sets usually get cited in chemistry papers
Good! But without the algorithms to do something with them, the functionals or basis sets would not do anything.
Hence, in our opinion, the algorithm design and method developments papers are equally worthy of getting cited

  1. Neese,F.
     An improvement of the resolution of the identity approximation for the formation of the Coulomb matrix
     J. Comp. Chem., 2003 24(14)1740-1747
     doi.org/10.1002/jcc.10318
  2. Neese,F.; Wennmohs,F.; Hansen,A.; Becker,U.
     Efficient, approximate and parallel Hartree-Fock and hybrid DFT calculations. A 'chain-of-spheres' algorithm for the Hartree-Fock exchange
     Chem. Phys., 2009 356(1-3)98-109
     doi.org/10.1016/j.chemphys.2008.10.036
  3. Bykov,D.; Petrenko,T.; Izsak,R.; Kossmann,S.; Becker,U.; Valeev,E.; Neese,F.
     Efficient implementation of the analytic second derivatives of Hartree-Fock and hybrid DFT energies: a detailed analysis of different approximations
     Molec. Phys., 2015 113 1961-1977
     doi.org/10.1080/00268976.2015.1025114
  4. Helmich-Paris,B.; de Souza,B.; Neese,F.; Izsák,R.
     An improved chain of spheres for exchange algorithm
     J. Chem. Phys., 2021 155 104109
     doi.org/doi: 10.1063/5.0058766.
  5. Neese,F.
     The SHARK Integral Generation and Digestion System
     J. Comp. Chem., 2022  1-16
     doi.org/10.1002/jcc.26942

List of suggested additional citations. These are papers that are important in the 'surrounding' of 
of this run, or papers that preceded the highly important papers. If you like your results we are grateful for a citation.

  1. Izsak,R.; Neese,F.
     An overlap fitted chain of spheres exchange method
     J. Chem. Phys., 2011 135 144105
     doi.org/10.1063/1.3646921
  2. Izsak,R.; Hansen,A.; Neese,F.
     The resolution of identity and chain of spheres approximations for the LPNO-CCSD singles Fock term
     Molec. Phys., 2012 110 2413-2417
     doi.org/10.1080/00268976.2012.687466
  3. Neese,F.
     The ORCA program system
     WIRES Comput. Molec. Sci., 2012 2(1)73-78
     doi.org/10.1002/wcms.81
  4. Izsak,R.; Neese,F.; Klopper,W.
     Robust fitting techniques in the chain of spheres approximation to the Fock exchange: The role of the complementary space
     J. Chem. Phys., 2013 139 
     doi.org/10.1063/1.4819264
  5. Neese,F.
     Software update: the ORCA program system, version 4.0
     WIRES Comput. Molec. Sci., 2018 8(1)1-6
     doi.org/10.1002/wcms.1327
  6. Neese,F.; Wennmohs,F.; Becker,U.; Riplinger,C.
     The ORCA quantum chemistry program package
     J. Chem. Phys., 2020 152 Art. No. L224108
     doi.org/10.1063/5.0004608

List of optional additional citations

  1. Neese,F.
     Approximate second-order SCF convergence for spin unrestricted wavefunctions
     Chem. Phys. Lett., 2000 325(1-3)93-98
     doi.org/10.1016/s0009-2614(00)00662-x

Timings for individual modules:

Sum of individual times          ...    39797.712 sec (= 663.295 min)
Startup calculation              ...      141.442 sec (=   2.357 min)   0.4 %
SCF iterations                   ...     1584.903 sec (=  26.415 min)   4.0 %
Property integrals               ...     2174.764 sec (=  36.246 min)   5.5 %
SCF Response                     ...    34816.730 sec (= 580.279 min)  87.5 %
Property calculations            ...      782.659 sec (=  13.044 min)   2.0 %
SCF Gradient evaluation          ...      296.758 sec (=   4.946 min)   0.7 %
Geometry relaxation              ...        0.456 sec (=   0.008 min)   0.0 %
                             ****ORCA TERMINATED NORMALLY****
TOTAL RUN TIME: 0 days 11 hours 4 minutes 1 seconds 203 msec
