
                                 *****************
                                 * O   R   C   A *
                                 *****************

                                            #,                                       
                                            ###                                      
                                            ####                                     
                                            #####                                    
                                            ######                                   
                                           ########,                                 
                                     ,,################,,,,,                         
                               ,,#################################,,                 
                          ,,##########################################,,             
                       ,#########################################, ''#####,          
                    ,#############################################,,   '####,        
                  ,##################################################,,,,####,       
                ,###########''''           ''''###############################       
              ,#####''   ,,,,##########,,,,          '''####'''          '####       
            ,##' ,,,,###########################,,,                        '##       
           ' ,,###''''                  '''############,,,                           
         ,,##''                                '''############,,,,        ,,,,,,###''
      ,#''                                            '''#######################'''  
     '                                                          ''''####''''         
             ,#######,   #######,   ,#######,      ##                                
            ,#'     '#,  ##    ##  ,#'     '#,    #''#        ,####,   ,####,        
            ##       ##  ##   ,#'  ##            #'  '#       #'       #'  '#        
            ##       ##  #######   ##           ,######,      #####,   #    #        
            '#,     ,#'  ##    ##  '#,     ,#' ,#      #,     #,   #   #,  ,#        
             '#######'   ##     ##  '#######'  #'      '#     '####' # '####'        



                #########################################################
                #                        -***-                          #
                #          Department of theory and spectroscopy        #
                #                                                       #
                #                      Frank Neese                      #
                #                                                       #
                #     Directorship, Architecture, Infrastructure        #
                #                    SHARK, DRIVERS                     #
                #        Core code/Algorithms in most modules           #
                #                                                       #
                #        Max Planck Institute fuer Kohlenforschung      #
                #                Kaiser Wilhelm Platz 1                 #
                #                 D-45470 Muelheim/Ruhr                 #
                #                      Germany                          #
                #                                                       #
                #                  All rights reserved                  #
                #                        -***-                          #
                #########################################################


                         Program Version 6.0.1  -  RELEASE   -


 With contributions from (in alphabetic order):
[Max-Planck-Institut fuer Kohlenforschung]                               
  Daniel Aravena         : Magnetic Suceptibility                        
  Michael Atanasov       : Ab Initio Ligand Field Theory (pilot matlab implementation)
  Alexander A. Auer      : GIAO ZORA, VPT2 properties, NMR spectrum      
  Ute Becker             : All parallelization in ORCA, NUMFREQ, NUMCALC 
  Giovanni Bistoni       : ED, misc. LED, open-shell LED, HFLD           
  Martin Brehm           : Molecular dynamics                            
  Dmytro Bykov           : pre 5.0 version of the SCF Hessian            
  Marcos Casanova-Páez   : Triplet and SCS-CIS(D). UHF-(DLPNO)-IP/EA/STEOM-CCSD. UHF-CVS-IP/STEOM-CCSD   
  Vijay G. Chilkuri      : MRCI spin determinant printing, contributions to CSF-ICE 
  Pauline Colinet        : FMM embedding                                 
  Dipayan Datta          : RHF DLPNO-CCSD density                        
  Achintya Kumar Dutta   : EOM-CC, STEOM-CC                              
  Nicolas Foglia         : Exact transition moments, OPA infrastructure, MCD improvements    
  Dmitry Ganyushin       : Spin-Orbit,Spin-Spin,Magnetic field MRCI      
  Miquel Garcia-Rates    : C-PCM and meta-GGA Hessian, CCSD/C-PCM, Gaussian charge scheme 
  Tiago L. C. Gouveia    : GS-ROHF, GS-ROCIS                             
  Yang Guo               : DLPNO-NEVPT2, F12-NEVPT2, CIM, IAO-localization        
  Andreas Hansen         : Spin unrestricted coupled pair/coupled cluster methods 
  Ingolf Harden          : AUTO-CI MPn and infrastructure                
  Benjamin Helmich-Paris : MC-RPA, TRAH-(SCF,CASSCF), AVAS, COSX integrals, SCF dyn. polar. 
  Lee Huntington         : MR-EOM, pCC                                   
  Robert Izsak           : Overlap fitted RIJCOSX, COSX-SCS-MP3, EOM     
  Riya Kayal             : Wick's Theorem for AUTO-CI, AUTO-CI UHF-CCSDT 
  Emily Kempfer          : AUTO-CI, RHF CISDT and CCSDT                  
  Christian Kollmar      : KDIIS, OOCD, Brueckner-CCSD(T), CCSD density, CASPT2, CASPT2-K, improved NEVPT2 
  Axel Koslowski         : Symmetry handling                             
  Simone Kossmann        : meta-GGA functionals, TD-DFT gradient, OOMP2, (MP2 Hessian; deprecated post 5.0) 
  Lucas Lang             : DCDCAS                                        
  Marvin Lechner         : AUTO-CI (C++ implementation), FIC-MRCC        
  Spencer Leger          : CASSCF response                               
  Dagmar Lenk            : GEPOL surface, SMD, ORCA-2-JSON               
  Dimitrios Liakos       : Extrapolation schemes; Compound Job, initial MDCI parallelization 
  Dimitrios Manganas     : Further ROCIS development; embedding schemes. LFT, Crystal Embedding 
  Dimitrios Pantazis     : SARC Basis sets                               
  Anastasios Papadopoulos: AUTO-CI, single reference methods and gradients 
  Taras Petrenko         : pre 6.0 DFT Hessian and TD-DFT gradient, (ASA, deprecated), ECA, 1-Electron XAS/XES, NRVS 
  Peter Pinski           : DLPNO-MP2, DLPNO-MP2 Gradient                 
  Christoph Reimann      : Effective Core Potentials                     
  Marius Retegan         : Local ZFS, SOC                                
  Christoph Riplinger    : Optimizer, TS searches, QM/MM, DLPNO-CCSD(T), (RO)-DLPNO pert. Triples 
  Michael Roemelt        : Original ROCIS implementation                 
  Masaaki Saitow         : Open-shell DLPNO-CCSD energy and density      
  Barbara Sandhoefer     : DKH picture change effects                    
  Kantharuban Sivalingam : CASSCF convergence/infrastructure, NEVPT2 and variants, FIC-MRCI 
  Bernardo de Souza      : ESD, SOC TD-DFT                               
  Georgi L. Stoychev     : AutoAux, RI-MP2 NMR, DLPNO-MP2 response, X2C  
  Van Anh Tran           : RI-MP2 g-tensors                              
  Willem Van den Heuvel  : Paramagnetic NMR                              
  Zikuan Wang            : NOTCH, Electric field optimization            
  Frank Wennmohs         : Technical directorship and infrastructure     
  Hang Xu                : AUTO-CI-Response properties                   
                                                                         
[FACCTs GmbH]                                                            
  Markus Bursch, Miquel Garcia-Rates, Christoph Riplinger, Bernardo de Souza, Georgi L. Stoychev 
                                                                 
  APM, Basis sets (HGBS, AHGBS, def-TZVP (Ac-Lr), def2-XVPD (La-Lu)), CI-OPT, improved COSX, DLPNO-Multilevel,           
  DOCKER, DRACO, updates on ESD, GOAT, IRC, LR-CPCM, MBIS, meta-GGA TD-DFT gradient, ML-optimized integration grids, 
  MM, NACMEs, nearIR, NEB, NEB-TS, NL-DFT gradient (VV10), 2- and 3-layer-ONIOM, interface openCOSMO-RS, QMMM,   
  Crystal-QMMM, SF, symmetry and pop. for TD-DFT, r2SCAN hybrids, SOLVATOR                                   
                                                                         
[Other institutions]                                                     
  V. Asgeirsson          : NEB                                           
  Christoph Bannwarth    : sTDA-DFT, sTD-DFT, PBEh-3c, B97-3c, D3        
  Sebastian Ehlert       : rSCAN, r2SCAN, r2SCAN-3c, D4, dhf basis sets  
  Marvin Friede          : D4 for Fr, Ra, Ac-Lr                          
  Lars Goerigk           : TD-DFT with DH, B97 family of functionals     
  Stefan Grimme          : VdW corrections, initial TS optimization, DFT functionals, gCP, sTDA/sTD-DF 
  Waldemar Hujo          : DFT-NL                                        
  H. Jonsson             : NEB                                           
  Holger Kruse           : gCP                                           
  Marcel Mueller         : wB97X-3c, vDZP basis set                      
  Hagen Neugebauer       : wr2SCAN                                       
  Tobias Risthaus        : range-separated hybrid DFT                    
  Lukas Wittmann         : regularized MP2, r2SCAN double-hybrids, wr2SCAN        
                                                                         
We gratefully acknowledge several colleagues who have allowed us to      
interface, adapt or use parts of their codes:                            
  Ed Valeev, F. Pavosevic, A. Kumar             : LibInt (2-el integral package), F12 methods 
  Garnet Chan, S. Sharma, J. Yang, R. Olivares  : DMRG                   
  Ulf Ekstrom                                   : XCFun DFT Library      
  Mihaly Kallay                                 : mrcc  (arbitrary order and MRCC methods)
  Frank Weinhold                                : gennbo (NPA and NBO analysis)           
  Simon Mueller                                 : openCOSMO-RS                            
  Christopher J. Cramer and Donald G. Truhlar   : smd solvation model                     
  S Lehtola, MJT Oliveira, MAL Marques          : LibXC Library                           
  Liviu Ungur et al                             : ANISO software                          


 Your calculation uses the libint2 library for the computation of 2-el integrals
 For citations please refer to: http://libint.valeyev.net

 Your ORCA version has been built with support for libXC version: 6.2.2
 For citations please refer to: https://libxc.gitlab.io

 This ORCA versions uses:
   CBLAS   interface :  Fast vector & matrix operations
   LAPACKE interface :  Fast linear algebra routines
   SCALAPACK package :  Parallel linear algebra routines
   Shared memory     :  Shared parallel matrices
   BLAS/LAPACK       :  OpenBLAS 0.3.27  USE64BITINT DYNAMIC_ARCH NO_AFFINITY Cooperlake SINGLE_THREADED
        Core in use  :  Cooperlake
   Copyright (c) 2011-2014, The OpenBLAS Project


NOTE: MaxCore=3600 MB was set to SCF,MP2,MDCI,CIPSI,MRCI and CIS
      => If you want to overwrite this, your respective input block should be placed after the MaxCore statement
Warning: RI is on but no J-basis has been assigned. Assigning Def2/J (nothing to worry about!)
================================================================================

----- Orbital basis set information -----
Your calculation utilizes the basis: def2-TZVP
   F. Weigend and R. Ahlrichs, Phys. Chem. Chem. Phys. 7, 3297 (2005).

----- AuxJ basis set information -----
Your calculation utilizes the auxiliary basis: def2/J
   F. Weigend, Phys. Chem. Chem. Phys. 8, 1057 (2006).

================================================================================
                                        WARNINGS
                       Please study these warnings very carefully!
================================================================================


WARNING: your system is open-shell and RHF/RKS was chosen
  ===> : WILL SWITCH to UHF/UKS


WARNING: Geometry Optimization
  ===> : Switching off AutoStart
         For restart on a previous wavefunction, please use MOREAD

================================================================================
                                       INPUT FILE
================================================================================
NAME = KAPPEW-S5.inp
|  1> ! PBE0 def2-TZVP  Opt Freq DEFGRID3
|  2> 
|  3> %maxcore 3600
|  4> 
|  5> %pal
|  6>     nprocs 16
|  7> end
|  8> 
|  9> *xyz 0 3
| 10> Cr 0.0 0.0 0.0
| 11> S 1.1554 1.7461 -4.5085
| 12> S 1.6572 1.8216 0.3378
| 13> N 0.2215 0.5765 -1.9292
| 14> N 2.6409 3.4675 2.1097
| 15> N 1.4848 1.7238 3.002
| 16> C 0.6302 1.0682 -2.9013
| 17> C 1.9396 2.3688 1.9501
| 18> H 2.7863 3.9056 2.7647
| 19> H 2.8833 4.0893 1.3818
| 20> H 1.6134 2.1642 3.8754
| 21> H 1.0799 0.8365 2.7647
| 22> S -1.6572 -1.8216 -0.3378
| 23> N -0.2215 -0.5765 1.9292
| 24> C -1.9396 -2.3688 -1.9501
| 25> C -0.6302 -1.0682 2.9013
| 26> N -2.6409 -3.4675 -2.1097
| 27> N -1.4848 -1.7238 -3.002
| 28> S -1.1554 -1.7461 4.5085
| 29> H -2.7863 -3.9056 -2.7647
| 30> H -2.8833 -4.0893 -1.3818
| 31> H -1.6134 -2.1642 -3.8754
| 32> H -1.0799 -0.8365 -2.7647
| 33> *
| 34> 
| 35>                          ****END OF INPUT****
================================================================================

                       *****************************
                       * Geometry Optimization Run *
                       *****************************

Geometry optimization settings:
Update method            Update   .... BFGS
Choice of coordinates    CoordSys .... (2022) Redundant Internals
Initial Hessian          InHess   .... Almloef's Model
Max. no of cycles        MaxIter  .... 69

Convergence Tolerances:
Energy Change            TolE     ....  5.0000e-06 Eh
Max. Gradient            TolMAXG  ....  3.0000e-04 Eh/bohr
RMS Gradient             TolRMSG  ....  1.0000e-04 Eh/bohr
Max. Displacement        TolMAXD  ....  4.0000e-03 bohr
RMS Displacement         TolRMSD  ....  2.0000e-03 bohr
Strict Convergence                .... False

------------------------------------------------------------------------------
                        ORCA OPTIMIZATION COORDINATE SETUP
------------------------------------------------------------------------------

The optimization will be done in redundant internal coordinates (2022)
Making redundant internal coordinates   ...  (2022 redundants) done
Evaluating the initial hessian          ...  (Almloef) done
Evaluating the coordinates              ...  done
Calculating the B-matrix                .... done
Calculating the G-matrix                .... done
Diagonalizing the G-matrix              .... done
Small eigenvalue found = 1.017e-02
Small eigenvalue found = 1.347e-02
Small eigenvalue found = 1.620e-02
Small eigenvalue found = 2.583e-02
The first mode is                       ....   23
The number of degrees of freedom        ....   63

    -----------------------------------------------------------------
                    Redundant Internal Coordinates


    -----------------------------------------------------------------
         Definition                    Initial Value    Approx d2E/dq
    -----------------------------------------------------------------
      1. B(S   2,Cr  0)                  2.4857         0.304460   
      2. B(N   3,Cr  0)                  2.0256         0.548117   
      3. B(C   6,S   1)                  1.8217         0.344991   
      4. B(C   6,N   3)                  1.1635         1.285899   
      5. B(C   7,N   5)                  1.3151         0.736971   
      6. B(C   7,N   4)                  1.3132         0.742063   
      7. B(C   7,S   2)                  1.7259         0.490477   
      8. B(H   8,N   4)                  0.8013         0.931422   
      9. B(H   9,N   4)                  0.9875         0.469928   
     10. B(H  10,N   5)                  0.9866         0.471605   
     11. B(H  11,S   2)                  2.6821         0.002800   
     12. B(H  11,N   5)                  1.0038         0.442724   
     13. B(S  12,Cr  0)                  2.4857         0.304460   
     14. B(N  13,Cr  0)                  2.0256         0.548117   
     15. B(N  13,H  11)                  2.0948         0.008043   
     16. B(C  14,S  12)                  1.7259         0.490477   
     17. B(C  15,N  13)                  1.1635         1.285899   
     18. B(N  16,C  14)                  1.3132         0.742063   
     19. B(N  17,C  14)                  1.3151         0.736971   
     20. B(S  18,C  15)                  1.8217         0.344991   
     21. B(H  19,N  16)                  0.8013         0.931422   
     22. B(H  20,N  16)                  0.9875         0.469928   
     23. B(H  21,N  17)                  0.9866         0.471605   
     24. B(H  22,S  12)                  2.6821         0.002800   
     25. B(H  22,N   3)                  2.0948         0.008043   
     26. B(H  22,N  17)                  1.0038         0.442724   
     27. A(N   3,Cr  0,S  12)           98.7452         0.486962   
     28. A(S   2,Cr  0,N   3)           81.2548         0.486962   
     29. A(S  12,Cr  0,N  13)           81.2548         0.486962   
     30. A(S   2,Cr  0,N  13)           98.7452         0.486962   
     31. A(Cr  0,S   2,C   7)          117.9299         0.450719   
     32. A(Cr  0,N   3,C   6)          162.6275         0.539737   
     33. A(C   7,N   4,H   9)          124.6326         0.375159   
     34. A(H   8,N   4,H   9)          102.3402         0.348661   
     35. A(C   7,N   4,H   8)          130.8200         0.423084   
     36. A(C   7,N   5,H  11)          112.5796         0.370883   
     37. A(H  10,N   5,H  11)          131.0312         0.308607   
     38. A(C   7,N   5,H  10)          116.3664         0.374943   
     39. A(S   1,C   6,N   3)          174.6542         0.467325   
     40. A(N   4,C   7,N   5)          119.8576         0.456603   
     41. A(S   2,C   7,N   5)          122.3542         0.450188   
     42. A(S   2,C   7,N   4)          117.7875         0.450752   
     43. A(Cr  0,S  12,C  14)          117.9299         0.450719   
     44. A(Cr  0,N  13,C  15)          162.6275         0.539737   
     45. A(N  16,C  14,N  17)          119.8576         0.456603   
     46. A(S  12,C  14,N  17)          122.3542         0.450188   
     47. A(S  12,C  14,N  16)          117.7875         0.450752   
     48. A(N  13,C  15,S  18)          174.6542         0.467325   
     49. A(H  19,N  16,H  20)          102.3402         0.348661   
     50. A(C  14,N  16,H  20)          124.6326         0.375159   
     51. A(C  14,N  16,H  19)          130.8200         0.423084   
     52. A(H  21,N  17,H  22)          131.0312         0.308607   
     53. A(C  14,N  17,H  22)          112.5796         0.370883   
     54. A(C  14,N  17,H  21)          116.3664         0.374943   
     55. D(C   7,S   2,Cr  0,N  13)    -12.4251         0.001651   
     56. D(C   7,S   2,Cr  0,N   3)    167.5749         0.001651   
     57. D(C   6,N   3,Cr  0,S   2)     14.8659         0.002868   
     58. D(C   6,N   3,Cr  0,S  12)   -165.1341         0.002868   
     59. D(S   1,C   6,N   3,Cr  0)    170.8598         0.147634   
     60. D(N   5,C   7,S   2,Cr  0)     11.2707         0.005449   
     61. D(S   2,C   7,N   5,H  11)      7.9004         0.045432   
     62. D(S   2,C   7,N   5,H  10)   -173.6403         0.045432   
     63. D(N   5,C   7,N   4,H   9)   -168.9523         0.046132   
     64. D(N   5,C   7,N   4,H   8)     -8.9289         0.046132   
     65. D(N   4,C   7,S   2,Cr  0)   -169.0277         0.005449   
     66. D(N   4,C   7,N   5,H  10)      6.6640         0.045432   
     67. D(S   2,C   7,N   4,H   9)     11.3383         0.046132   
     68. D(N   4,C   7,N   5,H  11)   -171.7953         0.045432   
     69. D(S   2,C   7,N   4,H   8)    171.3616         0.046132   
     70. D(C  14,S  12,S   2,C   7)    180.0000         0.001500   
     71. D(C  14,S  12,Cr  0,N  13)   -167.5749         0.001651   
     72. D(C  14,S  12,Cr  0,N   3)     12.4251         0.001651   
     73. D(C  15,N  13,N   3,C   6)    180.0000         0.001500   
     74. D(C  15,N  13,Cr  0,S  12)    -14.8659         0.002868   
     75. D(C  15,N  13,Cr  0,S   2)    165.1341         0.002868   
     76. D(N  17,C  14,S  12,Cr  0)    -11.2707         0.005449   
     77. D(N  16,C  14,S  12,Cr  0)    169.0277         0.005449   
     78. D(S  18,C  15,N  13,Cr  0)   -170.8598         0.147634   
     79. D(H  20,N  16,C  14,N  17)    168.9523         0.046132   
     80. D(H  20,N  16,C  14,S  12)    -11.3383         0.046132   
     81. D(H  19,N  16,C  14,N  17)      8.9289         0.046132   
     82. D(H  19,N  16,C  14,S  12)   -171.3616         0.046132   
     83. D(H  22,N  17,C  14,S  12)     -7.9004         0.045432   
     84. D(H  21,N  17,C  14,N  16)     -6.6640         0.045432   
     85. D(H  21,N  17,C  14,S  12)    173.6403         0.045432   
     86. D(H  22,N  17,C  14,N  16)    171.7953         0.045432   
    -----------------------------------------------------------------

Number of atoms                         .... 23
Number of degrees of freedom            .... 86


         *************************************************************
         *                GEOMETRY OPTIMIZATION CYCLE   1            *
         *************************************************************
---------------------------------
CARTESIAN COORDINATES (ANGSTROEM)
---------------------------------
  Cr     0.000000    0.000000    0.000000
  S      1.155400    1.746100   -4.508500
  S      1.657200    1.821600    0.337800
  N      0.221500    0.576500   -1.929200
  N      2.640900    3.467500    2.109700
  N      1.484800    1.723800    3.002000
  C      0.630200    1.068200   -2.901300
  C      1.939600    2.368800    1.950100
  H      2.786300    3.905600    2.764700
  H      2.883300    4.089300    1.381800
  H      1.613400    2.164200    3.875400
  H      1.079900    0.836500    2.764700
  S     -1.657200   -1.821600   -0.337800
  N     -0.221500   -0.576500    1.929200
  C     -1.939600   -2.368800   -1.950100
  C     -0.630200   -1.068200    2.901300
  N     -2.640900   -3.467500   -2.109700
  N     -1.484800   -1.723800   -3.002000
  S     -1.155400   -1.746100    4.508500
  H     -2.786300   -3.905600   -2.764700
  H     -2.883300   -4.089300   -1.381800
  H     -1.613400   -2.164200   -3.875400
  H     -1.079900   -0.836500   -2.764700

----------------------------
CARTESIAN COORDINATES (A.U.)
----------------------------
  NO LB      ZA    FRAG     MASS         X           Y           Z
   0 Cr   24.0000    0    52.000    0.000000    0.000000    0.000000
   1 S    16.0000    0    32.060    2.183390    3.299651   -8.519830
   2 S    16.0000    0    32.060    3.131654    3.442325    0.638349
   3 N     7.0000    0    14.007    0.418574    1.089427   -3.645660
   4 N     7.0000    0    14.007    4.990578    6.552625    3.986755
   5 N     7.0000    0    14.007    2.805865    3.257510    5.672958
   6 C     6.0000    0    12.011    1.190905    2.018605   -5.482662
   7 C     6.0000    0    12.011    3.665313    4.476383    3.685155
   8 H     1.0000    0     1.008    5.265344    7.380514    5.224526
   9 H     1.0000    0     1.008    5.448647    7.727657    2.611224
  10 H     1.0000    0     1.008    3.048884    4.089745    7.323445
  11 H     1.0000    0     1.008    2.040715    1.580756    5.224526
  12 S    16.0000    0    32.060   -3.131654   -3.442325   -0.638349
  13 N     7.0000    0    14.007   -0.418574   -1.089427    3.645660
  14 C     6.0000    0    12.011   -3.665313   -4.476383   -3.685155
  15 C     6.0000    0    12.011   -1.190905   -2.018605    5.482662
  16 N     7.0000    0    14.007   -4.990578   -6.552625   -3.986755
  17 N     7.0000    0    14.007   -2.805865   -3.257510   -5.672958
  18 S    16.0000    0    32.060   -2.183390   -3.299651    8.519830
  19 H     1.0000    0     1.008   -5.265344   -7.380514   -5.224526
  20 H     1.0000    0     1.008   -5.448647   -7.727657   -2.611224
  21 H     1.0000    0     1.008   -3.048884   -4.089745   -7.323445
  22 H     1.0000    0     1.008   -2.040715   -1.580756   -5.224526

--------------------------------
INTERNAL COORDINATES (ANGSTROEM)
--------------------------------
 Cr     0   0   0     0.000000000000     0.00000000     0.00000000
 S      1   0   0     4.970954296712     0.00000000     0.00000000
 S      1   2   0     2.485688484103    73.19464288     0.00000000
 N      1   2   3     2.025642401807     8.43920853   162.44725102
 N      3   1   2     2.610801047571   143.65117291   161.92604877
 N      5   3   1     2.274479322834    65.88528802    16.64243095
 C      4   1   3     1.163521804695   162.62752511    14.86585722
 C      5   3   1     1.313177649825    35.79067928    16.48279203
 H      5   3   1     0.801310033632   165.42028588   349.64036188
 H      5   3   1     0.987538054963    89.38005471   205.79278524
 H      6   5   3     0.986568639275    86.49292742   185.79314290
 H      6   5   3     1.003771184085   142.18273780    12.22408352
 S      1   2   3     2.485688484103   106.80535712   180.00000000
 N      1   2   3     2.025642401807   171.56079147   342.44725102
 C     13   1   2     1.725887855569   117.92992137     9.85846097
 C     14   1   4     1.163521804695   162.62752511     0.00000000
 N     15  13   1     1.313177649825   117.78746565   169.02765526
 N     15  13   1     1.315051957148   122.35423932   348.72932990
 S     16  14   1     1.821668271119   174.65418005   189.14019289
 H     17  15  13     0.801310033632   130.81996622   188.63835123
 H     17  15  13     0.987538054963   124.63257891   348.66169673
 H     18  15  13     0.986568639275   116.36644747   173.64031478
 H     18  15  13     1.003771184085   112.57964349   352.09959518

---------------------------
INTERNAL COORDINATES (A.U.)
---------------------------
 Cr     0   0   0     0.000000000000     0.00000000     0.00000000
 S      1   0   0     9.393742245025     0.00000000     0.00000000
 S      1   2   0     4.697270489196    73.19464288     0.00000000
 N      1   2   3     3.827909384674     8.43920853   162.44725102
 N      3   1   2     4.933698970065   143.65117291   161.92604877
 N      5   3   1     4.298143017423    65.88528802    16.64243095
 C      4   1   3     2.198737561719   162.62752511    14.86585722
 C      5   3   1     2.481546123356    35.79067928    16.48279203
 H      5   3   1     1.514256511929   165.42028588   349.64036188
 H      5   3   1     1.866176470705    89.38005471   205.79278524
 H      6   5   3     1.864344540544    86.49292742   185.79314290
 H      6   5   3     1.896852639043   142.18273780    12.22408352
 S      1   2   3     4.697270489196   106.80535712   180.00000000
 N      1   2   3     3.827909384674   171.56079147   342.44725102
 C     13   1   2     3.261455384886   117.92992137     9.85846097
 C     14   1   4     2.198737561719   162.62752511     0.00000000
 N     15  13   1     2.481546123356   117.78746565   169.02765526
 N     15  13   1     2.485088050888   122.35423932   348.72932990
 S     16  14   1     3.442454139268   174.65418005   189.14019289
 H     17  15  13     1.514256511929   130.81996622   188.63835123
 H     17  15  13     1.866176470705   124.63257891   348.66169673
 H     18  15  13     1.864344540544   116.36644747   173.64031478
 H     18  15  13     1.896852639043   112.57964349   352.09959518

---------------------
BASIS SET INFORMATION
---------------------
There are 5 groups of distinct atoms

 Group   1 Type Cr  : 17s11p7d1f contracted to 6s4p4d1f pattern {842111/6311/4111/1}
 Group   2 Type S   : 14s9p3d1f contracted to 5s5p2d1f pattern {73211/51111/21/1}
 Group   3 Type N   : 11s6p2d1f contracted to 5s3p2d1f pattern {62111/411/11/1}
 Group   4 Type C   : 11s6p2d1f contracted to 5s3p2d1f pattern {62111/411/11/1}
 Group   5 Type H   : 5s1p contracted to 3s1p pattern {311/1}

Atom   0Cr   basis set group =>   1
Atom   1S    basis set group =>   2
Atom   2S    basis set group =>   2
Atom   3N    basis set group =>   3
Atom   4N    basis set group =>   3
Atom   5N    basis set group =>   3
Atom   6C    basis set group =>   4
Atom   7C    basis set group =>   4
Atom   8H    basis set group =>   5
Atom   9H    basis set group =>   5
Atom  10H    basis set group =>   5
Atom  11H    basis set group =>   5
Atom  12S    basis set group =>   2
Atom  13N    basis set group =>   3
Atom  14C    basis set group =>   4
Atom  15C    basis set group =>   4
Atom  16N    basis set group =>   3
Atom  17N    basis set group =>   3
Atom  18S    basis set group =>   2
Atom  19H    basis set group =>   5
Atom  20H    basis set group =>   5
Atom  21H    basis set group =>   5
Atom  22H    basis set group =>   5
---------------------------------
AUXILIARY/J BASIS SET INFORMATION
---------------------------------
There are 5 groups of distinct atoms

 Group   1 Type Cr  : 19s5p5d3f3g contracted to 8s5p5d2f3g pattern {121111111/11111/11111/21/111}
 Group   2 Type S   : 14s5p5d2f1g contracted to 8s4p3d1f1g pattern {71111111/2111/311/2/1}
 Group   3 Type N   : 12s5p4d2f1g contracted to 6s4p3d1f1g pattern {711111/2111/211/2/1}
 Group   4 Type C   : 12s5p4d2f1g contracted to 6s4p3d1f1g pattern {711111/2111/211/2/1}
 Group   5 Type H   : 5s2p1d contracted to 3s1p1d pattern {311/2/1}

Atom   0Cr   basis set group =>   1
Atom   1S    basis set group =>   2
Atom   2S    basis set group =>   2
Atom   3N    basis set group =>   3
Atom   4N    basis set group =>   3
Atom   5N    basis set group =>   3
Atom   6C    basis set group =>   4
Atom   7C    basis set group =>   4
Atom   8H    basis set group =>   5
Atom   9H    basis set group =>   5
Atom  10H    basis set group =>   5
Atom  11H    basis set group =>   5
Atom  12S    basis set group =>   2
Atom  13N    basis set group =>   3
Atom  14C    basis set group =>   4
Atom  15C    basis set group =>   4
Atom  16N    basis set group =>   3
Atom  17N    basis set group =>   3
Atom  18S    basis set group =>   2
Atom  19H    basis set group =>   5
Atom  20H    basis set group =>   5
Atom  21H    basis set group =>   5
Atom  22H    basis set group =>   5


           ************************************************************
           *        Program running with 16 parallel MPI-processes    *
           *              working on a common directory               *
           ************************************************************
------------------------------------------------------------------------------
                             ORCA STARTUP CALCULATIONS
                           -- RI-GTO INTEGRALS CHOSEN --
------------------------------------------------------------------------------
------------------------------------------------------------------------------
                   ___                                                        
                  /   \      - P O W E R E D   B Y -                         
                 /     \                                                     
                 |  |  |   _    _      __       _____    __    __             
                 |  |  |  | |  | |    /  \     |  _  \  |  |  /  |          
                  \  \/   | |  | |   /    \    | | | |  |  | /  /          
                 / \  \   | |__| |  /  /\  \   | |_| |  |  |/  /          
                |  |  |   |  __  | /  /__\  \  |    /   |      \           
                |  |  |   | |  | | |   __   |  |    \   |  |\   \          
                \     /   | |  | | |  |  |  |  | |\  \  |  | \   \       
                 \___/    |_|  |_| |__|  |__|  |_| \__\ |__|  \__/        
                                                                              
                      - O R C A' S   B I G   F R I E N D -                    
                                      &                                       
                       - I N T E G R A L  F E E D E R -                       
                                                                              
 v1 FN, 2020, v2 2021, v3 2022-2024                                           
------------------------------------------------------------------------------


----------------------
SHARK INTEGRAL PACKAGE
----------------------

Number of atoms                             ...     23
Number of basis functions                   ...    551
Number of shells                            ...    209
Maximum angular momentum                    ...      3
Integral batch strategy                     ... SHARK/LIBINT Hybrid
RI-J (if used) integral strategy            ... SPLIT-RIJ (Revised 2003 algorithm where possible)
Printlevel                                  ...      1
Contraction scheme used                     ... SEGMENTED contraction
Prescreening option                         ... SCHWARTZ
   Thresh                                   ... 2.500e-11
   Tcut                                     ... 2.500e-12
   Tpresel                                  ... 2.500e-12 
Coulomb Range Separation                    ... NOT USED
Exchange Range Separation                   ... NOT USED
Multipole approximations                    ... NOT USED
Finite Nucleus Model                        ... NOT USED
CABS basis                                  ... NOT available
Auxiliary Coulomb fitting basis             ... AVAILABLE
   # of basis functions in Aux-J            ...    871
   # of shells in Aux-J                     ...    281
   Maximum angular momentum in Aux-J        ...      4
Auxiliary J/K fitting basis                 ... NOT available
Auxiliary Correlation fitting basis         ... NOT available
Auxiliary 'external' fitting basis          ... NOT available

Checking pre-screening integrals            ... done (  0.0 sec) Dimension = 209
Check shell pair data                       ... done (  0.0 sec)
Shell pair information
Shell pair cut-off parameter TPreSel        ...   2.5e-12
Total number of shell pairs                 ...     21945
Shell pairs after pre-screening             ...     14284
Total number of primitive shell pairs       ...     77475
Primitive shell pairs kept                  ...     32134
          la=0 lb=0:   3112 shell pairs
          la=1 lb=0:   4110 shell pairs
          la=1 lb=1:   1375 shell pairs
          la=2 lb=0:   2084 shell pairs
          la=2 lb=1:   1370 shell pairs
          la=2 lb=2:    376 shell pairs
          la=3 lb=0:    878 shell pairs
          la=3 lb=1:    596 shell pairs
          la=3 lb=2:    314 shell pairs
          la=3 lb=3:     69 shell pairs

Calculating one electron integrals          ... done (  0.0 sec)
done (  0.1 sec)
Calculating Nuclear repulsion               ... done (  0.0 sec) ENN=   1673.021670746440 Eh

Diagonalization of the overlap matrix:
Smallest eigenvalue                        ... 1.362e-04
Time for diagonalization                   ...    0.039 sec
Threshold for overlap eigenvalues          ... 1.000e-07
Number of eigenvalues below threshold      ... 0
Time for construction of square roots      ...    0.028 sec
Total time needed                          ...    0.084 sec

-------------------
DFT GRID GENERATION
-------------------

General Integration Accuracy     IntAcc      ... 4.959
Radial Grid Type                 RadialGrid  ... OptM3 with GC (2021)
Angular Grid (max. ang.)         AngularGrid ... 6 (Lebedev-590)
Angular grid pruning method      GridPruning ... 4 (adaptive)
Weight generation scheme         WeightScheme... mBecke (2022)
Basis function cutoff            BFCut       ... 1.0000e-11
Integration weight cutoff        WCut        ... 1.0000e-14
Partially contracted basis set               ... off
Rotationally invariant grid construction     ... off
Angular grids for H and He will be reduced by one unit
Core-polarized basis detected: some atoms will have their core
                               angular grid increased.

Total number of grid points                  ...   305406
Total number of batches                      ...     4784
Average number of points per batch           ...       63
Average number of grid points per atom       ...    13279

--------------------
COSX GRID GENERATION
--------------------

GRIDX 1
-------
General Integration Accuracy     IntAcc      ... 4.020
Radial Grid Type                 RadialGrid  ... OptM3 with GC (2021)
Angular Grid (max. ang.)         AngularGrid ... 2 (Lebedev-110)
Angular grid pruning method      GridPruning ... 4 (adaptive)
Weight generation scheme         WeightScheme... mBecke (2022)
Basis function cutoff            BFCut       ... 1.0000e-11
Integration weight cutoff        WCut        ... 1.0000e-14
Partially contracted basis set               ... on
Rotationally invariant grid construction     ... off
Angular grids for H and He will be reduced by one unit
Core-polarized basis detected: some atoms will have their core
                               angular grid increased.

Total number of grid points                  ...    37718
Total number of batches                      ...      309
Average number of points per batch           ...      122
Average number of grid points per atom       ...     1640
UseSFitting                                  ... on

GRIDX 2
-------
General Integration Accuracy     IntAcc      ... 4.338
Radial Grid Type                 RadialGrid  ... OptM3 with GC (2021)
Angular Grid (max. ang.)         AngularGrid ... 3 (Lebedev-194)
Angular grid pruning method      GridPruning ... 4 (adaptive)
Weight generation scheme         WeightScheme... mBecke (2022)
Basis function cutoff            BFCut       ... 1.0000e-11
Integration weight cutoff        WCut        ... 1.0000e-14
Partially contracted basis set               ... on
Rotationally invariant grid construction     ... off
Angular grids for H and He will be reduced by one unit
Core-polarized basis detected: some atoms will have their core
                               angular grid increased.

Total number of grid points                  ...    78514
Total number of batches                      ...      623
Average number of points per batch           ...      126
Average number of grid points per atom       ...     3414
UseSFitting                                  ... on

GRIDX 3
-------
General Integration Accuracy     IntAcc      ... 4.871
Radial Grid Type                 RadialGrid  ... OptM3 with GC (2021)
Angular Grid (max. ang.)         AngularGrid ... 4 (Lebedev-302)
Angular grid pruning method      GridPruning ... 4 (adaptive)
Weight generation scheme         WeightScheme... mBecke (2022)
Basis function cutoff            BFCut       ... 1.0000e-11
Integration weight cutoff        WCut        ... 1.0000e-14
Partially contracted basis set               ... on
Rotationally invariant grid construction     ... off
Angular grids for H and He will be reduced by one unit
Core-polarized basis detected: some atoms will have their core
                               angular grid increased.

Total number of grid points                  ...   144758
Total number of batches                      ...     1142
Average number of points per batch           ...      126
Average number of grid points per atom       ...     6294
UseSFitting                                  ... on
Initializing property integral containers    ... done (  0.0 sec)

SHARK setup successfully completed in   5.9 seconds

Maximum memory used throughout the entire STARTUP-calculation: 82.7 MB


           ************************************************************
           *        Program running with 16 parallel MPI-processes    *
           *              working on a common directory               *
           ************************************************************
-------------------------------------------------------------------------------
                                 ORCA GUESS
                   Start orbitals & Density for SCF / CASSCF
-------------------------------------------------------------------------------

------------
SCF SETTINGS
------------
Hamiltonian:
 Density Functional     Method          .... DFT(GTOs)
 Exchange Functional    Exchange        .... PBE
   PBE kappa parameter   XKappa         ....  0.804000
   PBE mue parameter    XMuePBE         ....  0.219520
 Correlation Functional Correlation     .... PBE
   PBE beta parameter  CBetaPBE         ....  0.066725
 LDA part of GGA corr.  LDAOpt          .... PW91-LDA
 Gradients option       PostSCFGGA      .... off
 Hybrid DFT is turned on
   Fraction HF Exchange ScalHFX         ....  0.250000
   Scaling of DF-GGA-X  ScalDFX         ....  0.750000
   Scaling of DF-GGA-C  ScalDFC         ....  1.000000
   Scaling of DF-LDA-C  ScalLDAC        ....  1.000000
   Perturbative correction              ....  0.000000
   NL short-range parameter             ....  6.900000
 RI-approximation to the Coulomb term is turned on
   Number of AuxJ basis functions       .... 871
   RIJ-COSX (HFX calculated with COS-X)).... on


General Settings:
 Integral files         IntName         .... KAPPEW-S5
 Hartree-Fock type      HFTyp           .... UHF
 Total Charge           Charge          ....    0
 Multiplicity           Mult            ....    3
 Number of Electrons    NEL             ....  162
 Basis Dimension        Dim             ....  551
 Nuclear Repulsion      ENuc            ....   1673.0216707464 Eh

Convergence Acceleration:
 AO-DIIS                CNVDIIS         .... on
   Start iteration      DIISMaxIt       ....    12
   Startup error        DIISStart       ....  0.200000
   # of expansion vecs  DIISMaxEq       ....     5
   Bias factor          DIISBfac        ....   1.050
   Max. coefficient     DIISMaxC        ....  10.000
 MO-DIIS                CNVKDIIS        .... off
 Trust-Rad. Augm. Hess. CNVTRAH         .... auto
   Auto Start mean grad. ratio tolernc. ....  1.125000
   Auto Start start iteration           ....    50
   Auto Start num. interpolation iter.  ....    10
   Max. Number of Micro iterations      ....    24
   Max. Number of Macro iterations      .... Maxiter - #DIIS iter
   Number of Davidson start vectors     ....     2
   Converg. threshold    (grad. norm)   ....   1.000e-05
   Grad. Scal. Fac. for Micro threshold ....   0.100
   Minimum threshold for Micro iter.    ....   1.000e-02
   NR start threshold (gradient norm)   ....   1.000e-04
   Initial trust radius                 ....   0.400
   Minimum AH scaling param. (alpha)    ....   1.000
   Maximum AH scaling param. (alpha)    .... 1000.000
   Quad. conv. algorithm                .... NR
   White noise on init. David. guess    .... on
   Maximum white noise                  ....   0.010
   Pseudo random numbers                .... off
   Inactive MOs                         .... canonical
   Orbital update algorithm             .... Taylor
   Preconditioner                       .... Diag
   Full preconditioner red. dimension   ....   250
 SOSCF                  CNVSOSCF        .... on
   Start iteration      SOSCFMaxIt      ....   150
   Startup grad/error   SOSCFStart      ....  0.003300
   Hessian update       SOSCFHessUp     .... L-BFGS
 Level Shifting         CNVShift        .... on
   Level shift para.    LevelShift      ....    0.2500
   Turn off err/grad.   ShiftErr        ....    0.0010
 Zerner damping         CNVZerner       .... off
 Static damping         CNVDamp         .... on
   Fraction old density DampFac         ....    0.7000
   Max. Damping (<1)    DampMax         ....    0.9800
   Min. Damping (>=0)   DampMin         ....    0.0000
   Turn off err/grad.   DampErr         ....    0.1000

SCF Procedure:
 Maximum # iterations   MaxIter         ....   125
 SCF integral mode      SCFMode         .... Direct
   Integral package                     .... SHARK and LIBINT hybrid scheme
 Reset frequency        DirectResetFreq ....    20
 Integral Threshold     Thresh          ....  2.500e-11 Eh
 Primitive CutOff       TCut            ....  2.500e-12 Eh

Convergence Tolerance:
 Convergence Check Mode ConvCheckMode   .... Total+1el-Energy
 Convergence forced     ConvForced      .... 0
 Energy Change          TolE            ....  1.000e-08 Eh
 1-El. energy change                    ....  1.000e-05 Eh
 Orbital Gradient       TolG            ....  1.000e-05
 Orbital Rotation angle TolX            ....  1.000e-05
 DIIS Error             TolErr          ....  5.000e-07

------------------------------
INITIAL GUESS: MODEL POTENTIAL
------------------------------
Loading Hartree-Fock densities                     ... done
Calculating cut-offs                               ... done
Initializing the effective Hamiltonian             ... done
Setting up the integral package (SHARK)            ... done
done (   0.1 sec)
Making the grid                                    ... done (   0.2 sec)
Mapping shells                                     ... done
Starting the XC term evaluation                    ... done (   0.0 sec)
  promolecular density results
     # of electrons  =    161.994666103
     EX              =   -208.940986937
     EC              =     -5.975779722
     EX+EC           =   -214.916766659
Transforming the Hamiltonian                       ... done (   0.1 sec)
done (   0.1 sec)
Back transforming the eigenvectors                 ... done (   0.0 sec)
done
                      ------------------
                      INITIAL GUESS DONE (   0.6 sec)
                      ------------------
             **** ENERGY FILE WAS UPDATED (KAPPEW-S5.en.tmp) ****
Finished Guess after   0.9 sec
Maximum memory used throughout the entire GUESS-calculation: 33.2 MB


           ************************************************************
           *        Program running with 16 parallel MPI-processes    *
           *              working on a common directory               *
           ************************************************************

-------------------------------------------------------------------------------------------
                                      ORCA LEAN-SCF
                              memory conserving SCF solver
-------------------------------------------------------------------------------------------

----------------------------------------D-I-I-S--------------------------------------------
Iteration    Energy (Eh)           Delta-E    RMSDP     MaxDP     DIISErr   Damp  Time(sec)
-------------------------------------------------------------------------------------------
               ***  Starting incremental Fock matrix formation  ***
    1    -3121.2798508325531657     0.00e+00  4.97e-04  2.68e-02  1.38e-01  0.700   5.7
Warning: op=0 Small HOMO/LUMO gap (   0.068) - skipping pre-diagonalization
         Will do a full diagonalization
    2    -3121.5355420200112349    -2.56e-01  3.51e-04  1.76e-02  6.37e-02  0.700   3.6
                               ***Turning on AO-DIIS***
    3    -3121.6311170055405455    -9.56e-02  1.88e-04  1.26e-02  2.46e-02  0.700   3.2
    4    -3121.6908515335617267    -5.97e-02  3.89e-04  3.04e-02  1.46e-02  0.000   3.1
    5    -3121.8262787384883268    -1.35e-01  8.52e-05  7.40e-03  4.16e-03  0.000   3.2
    6    -3121.8275475728551100    -1.27e-03  4.80e-05  6.09e-03  4.47e-03  0.000   2.9
                              *** Initializing SOSCF ***
---------------------------------------S-O-S-C-F--------------------------------------
Iteration    Energy (Eh)           Delta-E    RMSDP     MaxDP     MaxGrad    Time(sec)
--------------------------------------------------------------------------------------
    7    -3121.8279545003288149    -4.07e-04  2.69e-05  2.98e-03  2.65e-03     3.2
               *** Restarting incremental Fock matrix formation ***
    8    -3121.8282071992634883    -2.53e-04  4.36e-05  4.61e-03  1.81e-03     5.5
    9    -3121.8284561038981337    -2.49e-04  1.41e-04  1.90e-02  1.61e-03     4.1
               *** Scaled step length from 0.458874 to 0.200000 ***
   10    -3121.8291997389851531    -7.44e-04  2.57e-04  3.33e-02  4.12e-03     4.3
               *** Scaled step length from 2.624725 to 0.200000 ***
   11    -3121.8307089882082437    -1.51e-03  2.52e-04  3.57e-02  8.59e-03     4.4
   12    -3121.8316571415552971    -9.48e-04  1.06e-04  1.39e-02  1.08e-02     4.5
               *** Scaled step length from 1.521683 to 0.200000 ***
   13    -3121.8334987788157378    -1.84e-03  2.51e-04  2.99e-02  1.12e-02     4.3
               *** Scaled step length from 0.658531 to 0.200000 ***
   14    -3121.8385098728276716    -5.01e-03  2.62e-04  3.07e-02  1.03e-02     4.4
               *** Scaled step length from 0.227609 to 0.200000 ***
   15    -3121.8451725742215785    -6.66e-03  2.76e-04  3.72e-02  1.09e-02     4.4
   16    -3121.8524836058268193    -7.31e-03  2.70e-04  4.77e-02  9.55e-03     4.6
   17    -3121.8583118880187612    -5.83e-03  2.67e-04  3.96e-02  8.95e-03     4.6
   18    -3121.8610392587042952    -2.73e-03  1.40e-04  1.07e-02  7.46e-03     4.5
   19    -3121.8626091991773137    -1.57e-03  8.13e-05  8.94e-03  3.04e-03     4.5
   20    -3121.8627592282909973    -1.50e-04  4.41e-05  8.33e-03  2.19e-03     4.3
   21    -3121.8630044011588325    -2.45e-04  2.66e-05  3.91e-03  8.36e-04     4.1
   22    -3121.8630363719121306    -3.20e-05  2.52e-05  4.12e-03  8.85e-04     4.0
   23    -3121.8631058721293812    -6.95e-05  8.99e-05  1.23e-02  8.16e-04     3.7
   24    -3121.8632427238089804    -1.37e-04  1.12e-04  1.57e-02  7.25e-04     4.1
   25    -3121.8633672241112436    -1.25e-04  1.47e-04  2.04e-02  9.76e-04     4.2
   26    -3121.8635171091746088    -1.50e-04  1.44e-04  2.09e-02  1.04e-03     4.2
   27    -3121.8636497451752803    -1.33e-04  4.26e-05  5.14e-03  8.53e-04     4.2
               *** Restarting incremental Fock matrix formation ***
   28    -3121.8637185382758616    -6.88e-05  2.31e-05  3.05e-03  5.03e-04     5.5
   29    -3121.8637494152835643    -3.09e-05  3.45e-05  4.42e-03  5.72e-04     3.8
   30    -3121.8637765494650012    -2.71e-05  3.78e-05  6.09e-03  5.64e-04     3.9
   31    -3121.8638078316835163    -3.13e-05  1.31e-04  2.19e-02  4.57e-04     3.9
               *** Scaled step length from 0.206926 to 0.200000 ***
   32    -3121.8639031583006727    -9.53e-05  2.60e-04  4.49e-02  7.95e-04     4.1
               *** Scaled step length from 0.297366 to 0.200000 ***
   33    -3121.8640671159619160    -1.64e-04  2.61e-04  4.56e-02  1.68e-03     4.2
               *** Scaled step length from 0.488745 to 0.200000 ***
   34    -3121.8642845643735200    -2.17e-04  2.58e-04  4.15e-02  3.15e-03     4.2
               *** Scaled step length from 0.508677 to 0.200000 ***
   35    -3121.8645866847764410    -3.02e-04  2.50e-04  3.44e-02  4.51e-03     4.1
               *** Scaled step length from 0.355451 to 0.200000 ***
   36    -3121.8649780991700027    -3.91e-04  2.44e-04  3.62e-02  5.19e-03     4.1
               *** Scaled step length from 0.303777 to 0.200000 ***
   37    -3121.8653921122895554    -4.14e-04  2.37e-04  4.13e-02  3.62e-03     4.1
   38    -3121.8655779562895987    -1.86e-04  6.86e-05  1.13e-02  3.59e-03     7.2
   39    -3121.8656642213045416    -8.63e-05  2.24e-04  4.13e-02  1.54e-03     4.0
   40    -3121.8656405719684699     2.36e-05  8.00e-05  1.11e-02  3.00e-03     4.2
   41    -3121.8657415771285741    -1.01e-04  2.57e-05  4.19e-03  1.19e-03     4.0
   42    -3121.8657540479143790    -1.25e-05  8.93e-05  1.77e-02  3.46e-04     3.7
   43    -3121.8657650187651598    -1.10e-05  2.45e-05  5.20e-03  6.42e-04     3.9
   44    -3121.8657675770209607    -2.56e-06  1.31e-05  2.61e-03  1.55e-04     3.5
   45    -3121.8657686135329641    -1.04e-06  2.71e-06  4.60e-04  1.06e-04     3.2
   46    -3121.8657690244672267    -4.11e-07  2.41e-06  3.92e-04  6.09e-05     3.0
   47    -3121.8657693341519916    -3.10e-07  3.80e-06  6.33e-04  6.70e-05     3.0
               *** Restarting incremental Fock matrix formation ***
   48    -3121.8657696773416319    -3.43e-07  8.79e-06  1.38e-03  7.51e-05     5.4
   49    -3121.8657704930183172    -8.16e-07  1.17e-05  1.47e-03  1.73e-04     3.2
   50    -3121.8657716508905651    -1.16e-06  1.99e-05  2.93e-03  1.98e-04     3.2

       ******************************************************************************
       ***                                                                        ***
       ***                               Auto-TRAH                                ***
       ***                               ---------                                ***
       *** the maximum gradient error decreased on average only by a factor   1.1 ***
       *** during the last  10 iterations                                         ***
       ***                                                                        ***
       ***               Leaving SCF to start the TRAH-SCF procedure              ***
       ***                                                                        ***
       ******************************************************************************

 --------------------------------------------------------------------------------------------
   Iter.        energy            ||Error||_2        Shift      TRadius  Mac/Mic        Rej.
 --------------------------------------------------------------------------------------------
    0      -3121.865774386925     4.586897e-04                     0.400 (TRAH MAcro)   No
    0     dE    -3.973626e-07     5.448692e-04    -3.9736e-07      0.001 (TRAH MIcro)
    0     dE    -6.852454e-07     2.990209e-04    -6.8524e-07      0.002 (TRAH MIcro)
    0     dE    -7.498978e-07     1.722052e-04    -7.4989e-07      0.003 (TRAH MIcro)
    0     dE    -7.780763e-07     1.241725e-04    -7.7807e-07      0.003 (TRAH MIcro)
    0     dE    -7.930603e-07     8.431594e-05    -7.9305e-07      0.003 (TRAH MIcro)
    0     dE    -8.016280e-07     8.565078e-05    -8.0162e-07      0.003 (TRAH MIcro)
    0     dE    -8.135574e-07     9.694652e-05    -8.1355e-07      0.003 (TRAH MIcro)
    0     dE    -8.283276e-07     1.302720e-04    -8.2832e-07      0.004 (TRAH MIcro)
    0     dE    -8.650511e-07     1.882183e-04    -8.6503e-07      0.005 (TRAH MIcro)
    0     dE    -8.972401e-07     1.554862e-04    -8.9721e-07      0.006 (TRAH MIcro)
    0     dE    -9.154546e-07     1.054896e-04    -9.1541e-07      0.007 (TRAH MIcro)
    0     dE    -9.248230e-07     6.941307e-05    -9.2477e-07      0.007 (TRAH MIcro)
    0     dE    -9.290293e-07     5.457404e-05    -9.2898e-07      0.007 (TRAH MIcro)
    0     dE    -9.333252e-07     6.624864e-05    -9.3327e-07      0.008 (TRAH MIcro)
    0     dE    -9.454169e-07     1.156046e-04    -9.4535e-07      0.008 (TRAH MIcro)
    0     dE    -9.658019e-07     1.329402e-04    -9.6572e-07      0.009 (TRAH MIcro)
    0     dE    -9.774770e-07     8.985239e-05    -9.7738e-07      0.010 (TRAH MIcro)
    0     dE    -9.831799e-07     4.037085e-05    -9.8307e-07      0.011 (TRAH MIcro)
    1      -3121.865775387209     4.354305e-05                           (NR   MAcro)
    1     dE    -1.891528e-09     2.963346e-05                           (NR   MIcro)
    1     dE    -2.917331e-09     2.455725e-05                           (NR   MIcro)
    1     dE    -3.310969e-09     1.300134e-05                           (NR   MIcro)
    1     dE    -3.470920e-09     8.609850e-06                           (NR   MIcro)
    1     dE    -3.540837e-09     7.317122e-06                           (NR   MIcro)
    1     dE    -3.646480e-09     1.065123e-05                           (NR   MIcro)
    1     dE    -3.795461e-09     1.507631e-05                           (NR   MIcro)
    1     dE    -4.068831e-09     1.785130e-05                           (NR   MIcro)
    1     dE    -4.453232e-09     1.917270e-05                           (NR   MIcro)
    1     dE    -4.789501e-09     1.511389e-05                           (NR   MIcro)
    1     dE    -4.992834e-09     1.068700e-05                           (NR   MIcro)
    1     dE    -5.096822e-09     7.420196e-06                           (NR   MIcro)
    1     dE    -5.165650e-09     6.476797e-06                           (NR   MIcro)
    1     dE    -5.225696e-09     7.182217e-06                           (NR   MIcro)
    1     dE    -5.304721e-09     9.384678e-06                           (NR   MIcro)
    1     dE    -5.447162e-09     1.126899e-05                           (NR   MIcro)
    1     dE    -5.598344e-09     1.080659e-05                           (NR   MIcro)
    1     dE    -5.688503e-09     8.028073e-06                           (NR   MIcro)
    1     dE    -5.749366e-09     5.563355e-06                           (NR   MIcro)
    1     dE    -5.772692e-09     3.787840e-06                           (NR   MIcro)
    1     dE    -5.782355e-09     1.709166e-06                           (NR   MIcro)
    1     dE    -5.786084e-09     1.623845e-06                           (NR   MIcro)
    1     dE    -5.793787e-09     2.842901e-06                           (NR   MIcro)
    1     dE    -5.811639e-09     4.464640e-06                           (NR   MIcro)
    2      -3121.865775393058     4.846065e-06                           (NR   MAcro)

               *****************************************************
               *                     SUCCESS                       *
               *           SCF CONVERGED AFTER  95 CYCLES          *
               *****************************************************

 done (    6.573 sec)
Old exchange energy                            :    -52.745248328 Eh
New exchange energy                            :    -52.745252191 Eh
Exchange energy change after final integration :     -0.000003862 Eh
Total energy after final integration           :  -3121.865779255 Eh
             **** ENERGY FILE WAS UPDATED (KAPPEW-S5.en.tmp) ****

----------------
TOTAL SCF ENERGY
----------------

Total Energy       :      -3121.86577925544862 Eh          -84950.28664 eV

Components:
Nuclear Repulsion  :       1673.02167074643967 Eh           45525.23412 eV
Electronic Energy  :      -4794.88744613949802 Eh         -130475.52066 eV
One Electron Energy:      -7630.22182233234344 Eh         -207628.89143 eV
Two Electron Energy:       2835.33437619284541 Eh           77153.37078 eV

Virial components:
Potential Energy   :      -6238.71308516584759 Eh         -169764.01368 eV
Kinetic Energy     :       3116.84730591039897 Eh           84813.72704 eV
Virial Ratio       :          2.00161011203068

DFT components:
N(Alpha)           :       82.000000172966 electrons
N(Beta)            :       80.000000802021 electrons
N(Total)           :      162.000000974987 electrons
E(X)               :     -157.749882470674 Eh       
E(C)               :       -5.998552081380 Eh       
E(XC)              :     -163.748434552054 Eh       

---------------
SCF CONVERGENCE
---------------

  Last Energy change         ...   -5.8494e-09  Tolerance :   1.0000e-08
  Last MAX-Density change    ...    2.4981e-03  Tolerance :   1.0000e-07
  Last RMS-Density change    ...    1.6183e-05  Tolerance :   5.0000e-09
  Last DIIS Error            ...    2.6484e-03  Tolerance :   5.0000e-07
  Last Orbital Gradient      ...    4.8461e-06  Tolerance :   1.0000e-05
  Last Orbital Rotation      ...    1.2945e-03  Tolerance :   1.0000e-05


----------------------
UHF SPIN CONTAMINATION
----------------------

Warning: in a DFT calculation there is little theoretical justification to 
         calculate <S**2> as in Hartree-Fock theory. We will do it anyways
         but you should keep in mind that the values have only limited relevance

Expectation value of <S**2>     :     3.008917
Ideal value S*(S+1) for S=1.0   :     2.000000
Deviation                       :     1.008917

----------------
ORBITAL ENERGIES
----------------
                 SPIN UP ORBITALS
  NO   OCC          E(Eh)            E(eV) 
   0   1.0000    -216.002741     -5877.7334 
   1   1.0000     -89.017347     -2422.2852 
   2   1.0000     -89.017345     -2422.2851 
   3   1.0000     -88.982893     -2421.3476 
   4   1.0000     -88.982891     -2421.3476 
   5   1.0000     -24.827769      -675.5979 
   6   1.0000     -21.091658      -573.9332 
   7   1.0000     -21.086909      -573.8040 
   8   1.0000     -21.071574      -573.3867 
   9   1.0000     -14.451177      -393.2365 
  10   1.0000     -14.451175      -393.2365 
  11   1.0000     -14.440013      -392.9327 
  12   1.0000     -14.440012      -392.9327 
  13   1.0000     -14.384662      -391.4266 
  14   1.0000     -14.384662      -391.4265 
  15   1.0000     -10.388175      -282.6766 
  16   1.0000     -10.388172      -282.6765 
  17   1.0000     -10.299885      -280.2741 
  18   1.0000     -10.299884      -280.2741 
  19   1.0000      -7.997050      -217.6108 
  20   1.0000      -7.997048      -217.6107 
  21   1.0000      -7.957144      -216.5249 
  22   1.0000      -7.957142      -216.5248 
  23   1.0000      -5.933999      -161.4723 
  24   1.0000      -5.933997      -161.4723 
  25   1.0000      -5.927872      -161.3056 
  26   1.0000      -5.927867      -161.3055 
  27   1.0000      -5.927227      -161.2881 
  28   1.0000      -5.927220      -161.2879 
  29   1.0000      -5.896094      -160.4409 
  30   1.0000      -5.896093      -160.4409 
  31   1.0000      -5.887301      -160.2016 
  32   1.0000      -5.887301      -160.2016 
  33   1.0000      -5.887011      -160.1937 
  34   1.0000      -5.887011      -160.1937 
  35   1.0000      -2.966099       -80.7117 
  36   1.0000      -1.919850       -52.2418 
  37   1.0000      -1.908743       -51.9395 
  38   1.0000      -1.875139       -51.0251 
  39   1.0000      -1.084098       -29.4998 
  40   1.0000      -1.084089       -29.4996 
  41   1.0000      -0.992508       -27.0075 
  42   1.0000      -0.992473       -27.0066 
  43   1.0000      -0.947349       -25.7787 
  44   1.0000      -0.945825       -25.7372 
  45   1.0000      -0.805436       -21.9170 
  46   1.0000      -0.804781       -21.8992 
  47   1.0000      -0.710978       -19.3467 
  48   1.0000      -0.710108       -19.3230 
  49   1.0000      -0.690741       -18.7960 
  50   1.0000      -0.690391       -18.7865 
  51   1.0000      -0.638568       -17.3763 
  52   1.0000      -0.638543       -17.3756 
  53   1.0000      -0.620298       -16.8792 
  54   1.0000      -0.618031       -16.8175 
  55   1.0000      -0.555006       -15.1025 
  56   1.0000      -0.554657       -15.0930 
  57   1.0000      -0.514437       -13.9985 
  58   1.0000      -0.485159       -13.2019 
  59   1.0000      -0.484411       -13.1815 
  60   1.0000      -0.479637       -13.0516 
  61   1.0000      -0.442123       -12.0308 
  62   1.0000      -0.439482       -11.9589 
  63   1.0000      -0.402011       -10.9393 
  64   1.0000      -0.395332       -10.7575 
  65   1.0000      -0.393599       -10.7104 
  66   1.0000      -0.392937       -10.6923 
  67   1.0000      -0.385767       -10.4972 
  68   1.0000      -0.378383       -10.2963 
  69   1.0000      -0.348155        -9.4738 
  70   1.0000      -0.347530        -9.4568 
  71   1.0000      -0.309628        -8.4254 
  72   1.0000      -0.306641        -8.3441 
  73   1.0000      -0.286587        -7.7984 
  74   1.0000      -0.282565        -7.6890 
  75   1.0000      -0.279017        -7.5924 
  76   1.0000      -0.277256        -7.5445 
  77   1.0000      -0.248932        -6.7738 
  78   1.0000      -0.221397        -6.0245 
  79   1.0000      -0.221031        -6.0146 
  80   1.0000      -0.217066        -5.9067 
  81   1.0000      -0.213462        -5.8086 
  82   0.0000      -0.060713        -1.6521 
  83   0.0000      -0.041978        -1.1423 
  84   0.0000      -0.039263        -1.0684 
  85   0.0000      -0.028258        -0.7689 
  86   0.0000       0.000052         0.0014 
  87   0.0000       0.000847         0.0231 
  88   0.0000       0.018059         0.4914 
  89   0.0000       0.024899         0.6775 
  90   0.0000       0.027514         0.7487 
  91   0.0000       0.031818         0.8658 
  92   0.0000       0.034350         0.9347 

                 SPIN DOWN ORBITALS
  NO   OCC          E(Eh)            E(eV) 
   0   1.0000    -216.002521     -5877.7274 
   1   1.0000     -89.017489     -2422.2890 
   2   1.0000     -89.017487     -2422.2890 
   3   1.0000     -88.982607     -2421.3398 
   4   1.0000     -88.982606     -2421.3398 
   5   1.0000     -24.796814      -674.7556 
   6   1.0000     -21.059614      -573.0612 
   7   1.0000     -21.057926      -573.0153 
   8   1.0000     -21.053645      -572.8988 
   9   1.0000     -14.451121      -393.2350 
  10   1.0000     -14.451119      -393.2349 
  11   1.0000     -14.439925      -392.9303 
  12   1.0000     -14.439925      -392.9303 
  13   1.0000     -14.385776      -391.4569 
  14   1.0000     -14.385775      -391.4568 
  15   1.0000     -10.387943      -282.6703 
  16   1.0000     -10.387940      -282.6702 
  17   1.0000     -10.298819      -280.2451 
  18   1.0000     -10.298818      -280.2451 
  19   1.0000      -7.997172      -217.6141 
  20   1.0000      -7.997171      -217.6141 
  21   1.0000      -7.956883      -216.5178 
  22   1.0000      -7.956881      -216.5177 
  23   1.0000      -5.934144      -161.4763 
  24   1.0000      -5.934142      -161.4762 
  25   1.0000      -5.927937      -161.3074 
  26   1.0000      -5.927931      -161.3072 
  27   1.0000      -5.927593      -161.2980 
  28   1.0000      -5.927588      -161.2979 
  29   1.0000      -5.895992      -160.4381 
  30   1.0000      -5.895991      -160.4381 
  31   1.0000      -5.886699      -160.1852 
  32   1.0000      -5.886699      -160.1852 
  33   1.0000      -5.886472      -160.1790 
  34   1.0000      -5.886472      -160.1790 
  35   1.0000      -2.877882       -78.3112 
  36   1.0000      -1.808000       -49.1982 
  37   1.0000      -1.807320       -49.1797 
  38   1.0000      -1.802216       -49.0408 
  39   1.0000      -1.083879       -29.4938 
  40   1.0000      -1.083870       -29.4936 
  41   1.0000      -0.992335       -27.0028 
  42   1.0000      -0.992301       -27.0019 
  43   1.0000      -0.946616       -25.7587 
  44   1.0000      -0.945026       -25.7155 
  45   1.0000      -0.805134       -21.9088 
  46   1.0000      -0.804487       -21.8912 
  47   1.0000      -0.711026       -19.3480 
  48   1.0000      -0.710223       -19.3262 
  49   1.0000      -0.689731       -18.7685 
  50   1.0000      -0.689380       -18.7590 
  51   1.0000      -0.638519       -17.3750 
  52   1.0000      -0.638495       -17.3743 
  53   1.0000      -0.620228       -16.8773 
  54   1.0000      -0.618119       -16.8199 
  55   1.0000      -0.554853       -15.0983 
  56   1.0000      -0.554585       -15.0910 
  57   1.0000      -0.512239       -13.9387 
  58   1.0000      -0.484294       -13.1783 
  59   1.0000      -0.483447       -13.1553 
  60   1.0000      -0.478946       -13.0328 
  61   1.0000      -0.438603       -11.9350 
  62   1.0000      -0.438445       -11.9307 
  63   1.0000      -0.399792       -10.8789 
  64   1.0000      -0.394140       -10.7251 
  65   1.0000      -0.387535       -10.5454 
  66   1.0000      -0.386205       -10.5092 
  67   1.0000      -0.384415       -10.4605 
  68   1.0000      -0.376939       -10.2570 
  69   1.0000      -0.347259        -9.4494 
  70   1.0000      -0.346799        -9.4369 
  71   1.0000      -0.305789        -8.3209 
  72   1.0000      -0.286250        -7.7893 
  73   1.0000      -0.280283        -7.6269 
  74   1.0000      -0.278188        -7.5699 
  75   1.0000      -0.228689        -6.2229 
  76   1.0000      -0.221647        -6.0313 
  77   1.0000      -0.220984        -6.0133 
  78   1.0000      -0.219202        -5.9648 
  79   1.0000      -0.218993        -5.9591 
  80   0.0000      -0.058627        -1.5953 
  81   0.0000      -0.048427        -1.3178 
  82   0.0000      -0.037668        -1.0250 
  83   0.0000      -0.034200        -0.9306 
  84   0.0000      -0.012760        -0.3472 
  85   0.0000       0.001206         0.0328 
  86   0.0000       0.002076         0.0565 
  87   0.0000       0.004652         0.1266 
  88   0.0000       0.020044         0.5454 
  89   0.0000       0.026324         0.7163 
  90   0.0000       0.030738         0.8364 
*Only the first 10 virtual orbitals were printed.

                    ********************************
                    * MULLIKEN POPULATION ANALYSIS *
                    ********************************

--------------------------------------------
MULLIKEN ATOMIC CHARGES AND SPIN POPULATIONS
--------------------------------------------
   0 Cr:    0.507530    2.035242
   1 S :   -0.313647    0.044096
   2 S :   -0.263842   -0.039638
   3 N :   -0.269388   -0.090321
   4 N :   -0.343415    0.003753
   5 N :   -0.319486    0.004124
   6 C :   -0.023435    0.049214
   7 C :    0.298716    0.012614
   8 H :    0.171266   -0.000442
   9 H :    0.267976    0.000086
  10 H :    0.245299   -0.000226
  11 H :    0.296190   -0.000882
  12 S :   -0.263838   -0.039638
  13 N :   -0.269390   -0.090321
  14 C :    0.298712    0.012614
  15 C :   -0.023432    0.049214
  16 N :   -0.343415    0.003753
  17 N :   -0.319487    0.004124
  18 S :   -0.313646    0.044096
  19 H :    0.171266   -0.000442
  20 H :    0.267976    0.000086
  21 H :    0.245299   -0.000226
  22 H :    0.296192   -0.000882
Sum of atomic charges         :    0.0000000
Sum of atomic spin populations:    2.0000000

-----------------------------------------------------
MULLIKEN REDUCED ORBITAL CHARGES AND SPIN POPULATIONS
-----------------------------------------------------
CHARGE
  0 Crs       :     6.548405  s :     6.548405
      pz      :     4.097829  p :    12.323121
      px      :     4.103970
      py      :     4.121321
      dz2     :     0.677330  d :     4.618412
      dxz     :     0.997425
      dyz     :     0.933155
      dx2y2   :     1.039618
      dxy     :     0.970883
      f0      :     0.000737  f :     0.002533
      f+1     :     0.000354
      f-1     :     0.000642
      f+2     :     0.000071
      f-2     :     0.000165
      f+3     :     0.000270
      f-3     :     0.000294

  1 S s       :     5.848728  s :     5.848728
      pz      :     3.051241  p :    10.392723
      px      :     3.693989
      py      :     3.647493
      dz2     :     0.025022  d :     0.064655
      dxz     :     0.014595
      dyz     :     0.018712
      dx2y2   :     0.002730
      dxy     :     0.003596
      f0      :     0.001809  f :     0.007542
      f+1     :     0.001665
      f-1     :     0.002266
      f+2     :     0.000665
      f-2     :     0.000974
      f+3     :     0.000087
      f-3     :     0.000077

  2 S s       :     5.868099  s :     5.868099
      pz      :     3.068938  p :    10.289095
      px      :     3.620174
      py      :     3.599984
      dz2     :     0.042708  d :     0.096722
      dxz     :     0.019606
      dyz     :     0.022276
      dx2y2   :     0.005994
      dxy     :     0.006138
      f0      :     0.002938  f :     0.009926
      f+1     :     0.001779
      f-1     :     0.002661
      f+2     :     0.000720
      f-2     :     0.000911
      f+3     :     0.000457
      f-3     :     0.000461

  3 N s       :     3.572409  s :     3.572409
      pz      :     1.152636  p :     3.663657
      px      :     1.259444
      py      :     1.251577
      dz2     :     0.008089  d :     0.030333
      dxz     :     0.008464
      dyz     :     0.007560
      dx2y2   :     0.003295
      dxy     :     0.002925
      f0      :     0.000962  f :     0.002989
      f+1     :     0.000486
      f-1     :     0.000468
      f+2     :     0.000551
      f-2     :     0.000317
      f+3     :     0.000097
      f-3     :     0.000108

  4 N s       :     3.337663  s :     3.337663
      pz      :     1.188071  p :     3.968446
      px      :     1.547729
      py      :     1.232646
      dz2     :     0.002614  d :     0.033100
      dxz     :     0.003976
      dyz     :     0.012757
      dx2y2   :     0.007961
      dxy     :     0.005792
      f0      :     0.000231  f :     0.004207
      f+1     :     0.000132
      f-1     :     0.000704
      f+2     :     0.000426
      f-2     :     0.000732
      f+3     :     0.000885
      f-3     :     0.001095

  5 N s       :     3.416748  s :     3.416748
      pz      :     1.088709  p :     3.863077
      px      :     1.528165
      py      :     1.246203
      dz2     :     0.012228  d :     0.035984
      dxz     :     0.005728
      dyz     :     0.008361
      dx2y2   :     0.004865
      dxy     :     0.004801
      f0      :     0.000669  f :     0.003677
      f+1     :     0.000447
      f-1     :     0.000669
      f+2     :     0.000434
      f-2     :     0.000440
      f+3     :     0.000619
      f-3     :     0.000398

  6 C s       :     3.264896  s :     3.264896
      pz      :     0.917369  p :     2.591031
      px      :     0.831738
      py      :     0.841924
      dz2     :     0.046920  d :     0.153313
      dxz     :     0.039188
      dyz     :     0.035754
      dx2y2   :     0.017055
      dxy     :     0.014396
      f0      :     0.004024  f :     0.014195
      f+1     :     0.002312
      f-1     :     0.002324
      f+2     :     0.002740
      f-2     :     0.001921
      f+3     :     0.000415
      f-3     :     0.000459

  7 C s       :     3.085168  s :     3.085168
      pz      :     0.828067  p :     2.378323
      px      :     0.759652
      py      :     0.790604
      dz2     :     0.043037  d :     0.220801
      dxz     :     0.049935
      dyz     :     0.052777
      dx2y2   :     0.045811
      dxy     :     0.029241
      f0      :     0.003230  f :     0.016992
      f+1     :     0.002127
      f-1     :     0.002120
      f+2     :     0.002328
      f-2     :     0.002525
      f+3     :     0.001447
      f-3     :     0.003215

  8 H s       :     0.775511  s :     0.775511
      pz      :     0.017459  p :     0.053224
      px      :     0.018751
      py      :     0.017014

  9 H s       :     0.692855  s :     0.692855
      pz      :     0.014059  p :     0.039169
      px      :     0.011952
      py      :     0.013158

 10 H s       :     0.715143  s :     0.715143
      pz      :     0.018337  p :     0.039558
      px      :     0.011523
      py      :     0.009697

 11 H s       :     0.660326  s :     0.660326
      pz      :     0.006750  p :     0.043484
      px      :     0.014201
      py      :     0.022534

 12 S s       :     5.868096  s :     5.868096
      pz      :     3.068939  p :    10.289094
      px      :     3.620173
      py      :     3.599983
      dz2     :     0.042708  d :     0.096721
      dxz     :     0.019606
      dyz     :     0.022276
      dx2y2   :     0.005994
      dxy     :     0.006138
      f0      :     0.002938  f :     0.009926
      f+1     :     0.001779
      f-1     :     0.002661
      f+2     :     0.000720
      f-2     :     0.000911
      f+3     :     0.000457
      f-3     :     0.000461

 13 N s       :     3.572412  s :     3.572412
      pz      :     1.152636  p :     3.663656
      px      :     1.259444
      py      :     1.251576
      dz2     :     0.008089  d :     0.030333
      dxz     :     0.008464
      dyz     :     0.007560
      dx2y2   :     0.003295
      dxy     :     0.002925
      f0      :     0.000962  f :     0.002989
      f+1     :     0.000486
      f-1     :     0.000468
      f+2     :     0.000551
      f-2     :     0.000317
      f+3     :     0.000097
      f-3     :     0.000108

 14 C s       :     3.085164  s :     3.085164
      pz      :     0.828075  p :     2.378332
      px      :     0.759651
      py      :     0.790605
      dz2     :     0.043037  d :     0.220801
      dxz     :     0.049935
      dyz     :     0.052777
      dx2y2   :     0.045811
      dxy     :     0.029241
      f0      :     0.003230  f :     0.016992
      f+1     :     0.002127
      f-1     :     0.002120
      f+2     :     0.002328
      f-2     :     0.002525
      f+3     :     0.001447
      f-3     :     0.003215

 15 C s       :     3.264897  s :     3.264897
      pz      :     0.917364  p :     2.591026
      px      :     0.831739
      py      :     0.841924
      dz2     :     0.046920  d :     0.153313
      dxz     :     0.039187
      dyz     :     0.035754
      dx2y2   :     0.017056
      dxy     :     0.014396
      f0      :     0.004024  f :     0.014195
      f+1     :     0.002312
      f-1     :     0.002324
      f+2     :     0.002740
      f-2     :     0.001921
      f+3     :     0.000415
      f-3     :     0.000459

 16 N s       :     3.337662  s :     3.337662
      pz      :     1.188070  p :     3.968446
      px      :     1.547729
      py      :     1.232646
      dz2     :     0.002614  d :     0.033100
      dxz     :     0.003976
      dyz     :     0.012757
      dx2y2   :     0.007961
      dxy     :     0.005792
      f0      :     0.000231  f :     0.004207
      f+1     :     0.000132
      f-1     :     0.000704
      f+2     :     0.000426
      f-2     :     0.000732
      f+3     :     0.000885
      f-3     :     0.001095

 17 N s       :     3.416751  s :     3.416751
      pz      :     1.088707  p :     3.863076
      px      :     1.528165
      py      :     1.246203
      dz2     :     0.012228  d :     0.035984
      dxz     :     0.005728
      dyz     :     0.008361
      dx2y2   :     0.004865
      dxy     :     0.004801
      f0      :     0.000669  f :     0.003677
      f+1     :     0.000447
      f-1     :     0.000669
      f+2     :     0.000434
      f-2     :     0.000440
      f+3     :     0.000619
      f-3     :     0.000398

 18 S s       :     5.848728  s :     5.848728
      pz      :     3.051241  p :    10.392722
      px      :     3.693989
      py      :     3.647493
      dz2     :     0.025022  d :     0.064655
      dxz     :     0.014595
      dyz     :     0.018712
      dx2y2   :     0.002730
      dxy     :     0.003596
      f0      :     0.001809  f :     0.007542
      f+1     :     0.001665
      f-1     :     0.002266
      f+2     :     0.000665
      f-2     :     0.000974
      f+3     :     0.000087
      f-3     :     0.000077

 19 H s       :     0.775510  s :     0.775510
      pz      :     0.017459  p :     0.053224
      px      :     0.018751
      py      :     0.017014

 20 H s       :     0.692855  s :     0.692855
      pz      :     0.014059  p :     0.039169
      px      :     0.011952
      py      :     0.013158

 21 H s       :     0.715144  s :     0.715144
      pz      :     0.018337  p :     0.039558
      px      :     0.011523
      py      :     0.009697

 22 H s       :     0.660323  s :     0.660323
      pz      :     0.006750  p :     0.043484
      px      :     0.014201
      py      :     0.022534


SPIN
  0 Crs       :    -0.002759  s :    -0.002759
      pz      :     0.020145  p :     0.042448
      px      :     0.009431
      py      :     0.012871
      dz2     :     0.116276  d :     1.995435
      dxz     :     0.855548
      dyz     :     0.734885
      dx2y2   :     0.925338
      dxy     :    -0.636611
[...]
     53       0.030786  -0.000059   0.000367
     54       0.000033  -0.000001   0.000005
     55       0.000053  -0.000002   0.000008
     56      -0.000145  -0.000003  -0.000015
     57      -0.003260  -0.025659   0.164025
     58      -0.003922  -0.030706   0.196279
     59      -0.010460  -0.090172   0.576543
     60      -0.003465   0.038827  -0.248034
     61      -0.005398   0.061273  -0.391442
     62       0.007811  -0.093387   0.596814
     63      -0.107994   0.000051  -0.000477
     64      -0.116815   0.000078  -0.000675
     65      -0.409387  -0.000101   0.000190
     66      -0.058492  -0.000347   0.000232
     67      -0.080086  -0.000468   0.000281
     68      -0.008631  -0.000165   0.000690


-----------
IR SPECTRUM
-----------

 Mode   freq       eps      Int      T**2         TX        TY        TZ
       cm**-1   L/(mol*cm) km/mol    a.u.
----------------------------------------------------------------------------
  6:      8.48   0.001762    8.90  0.064820  (-0.206162  0.149123  0.008906)
  7:     25.61   0.000000    0.00  0.000000  (-0.000387  0.000200  0.000028)
  8:     29.09   0.000650    3.29  0.006977  (-0.021304 -0.028979 -0.075386)
  9:     30.40   0.000643    3.25  0.006605  ( 0.066053 -0.047261 -0.002902)
 10:     34.48   0.000810    4.09  0.007327  (-0.069776  0.049534  0.002183)
 11:     37.44   0.000000    0.00  0.000001  ( 0.000328 -0.000572 -0.000769)
 12:     53.70   0.000000    0.00  0.000000  ( 0.000005 -0.000031  0.000067)
 13:     77.01   0.000383    1.93  0.001551  (-0.030423  0.024853  0.002798)
 14:     84.47   0.002763   13.96  0.010206  ( 0.045492  0.066578 -0.060859)
 15:     98.99   0.000000    0.00  0.000000  (-0.000047 -0.000018  0.000044)
 16:    141.05   0.000000    0.00  0.000000  (-0.000021 -0.000040 -0.000018)
 17:    161.67   0.000686    3.47  0.001324  (-0.019410 -0.027748 -0.013315)
 18:    174.94   0.029262  147.88  0.052200  (-0.190600  0.125924  0.003782)
 19:    176.33   0.000063    0.32  0.000111  ( 0.008704 -0.005926 -0.000130)
 20:    183.97   0.000000    0.00  0.000000  (-0.000069  0.000033 -0.000011)
 21:    194.38   0.013650   68.98  0.021914  ( 0.122614 -0.082843 -0.004134)
 22:    211.53   0.000000    0.00  0.000000  ( 0.000113 -0.000053 -0.000012)
 23:    233.33   0.000737    3.73  0.000986  ( 0.009601  0.013055 -0.026897)
 24:    242.56   0.000000    0.00  0.000000  ( 0.000024  0.000015  0.000030)
 25:    294.59   0.019930  100.72  0.021112  (-0.084388 -0.116842 -0.018400)
 26:    368.71   0.022633  114.38  0.019156  ( 0.015409  0.030699 -0.134074)
 27:    388.61   0.000005    0.03  0.000004  (-0.001626  0.001301  0.000083)
 28:    390.68   0.070744  357.51  0.056508  (-0.193671  0.137390  0.011121)
 29:    433.01   0.000000    0.00  0.000000  (-0.000064 -0.000044  0.000029)
 30:    443.26   0.002840   14.35  0.001999  ( 0.024140  0.033049 -0.018004)
 31:    468.47   0.000000    0.00  0.000000  ( 0.000024  0.000058 -0.000005)
 32:    469.79   0.006393   32.31  0.004246  ( 0.037291  0.053050 -0.006434)
 33:    499.48   0.001635    8.26  0.001022  (-0.025330  0.019498  0.000031)
 34:    499.83   0.000000    0.00  0.000000  ( 0.000205 -0.000077  0.000015)
 35:    514.04   0.000000    0.00  0.000000  (-0.000148  0.000161  0.000019)
 36:    517.37   0.004783   24.17  0.002885  (-0.043334  0.031669  0.002125)
 37:    532.26   0.000000    0.00  0.000000  (-0.000054 -0.000127 -0.000059)
 38:    537.23   0.002163   10.93  0.001256  (-0.018999 -0.025214 -0.016112)
 39:    646.42   0.002426   12.26  0.001171  ( 0.027887 -0.019794 -0.001214)
 40:    646.58   0.000041    0.21  0.000020  ( 0.003618 -0.002607 -0.000158)
 41:    724.39   0.000020    0.10  0.000009  ( 0.002461 -0.001640 -0.000112)
 42:    725.44   0.006457   32.63  0.002777  (-0.043031  0.030392  0.001437)
 43:    738.52   0.011999   60.64  0.005070  (-0.018584 -0.022744 -0.064866)
 44:    740.34   0.000000    0.00  0.000000  (-0.000042 -0.000032 -0.000102)
 45:    914.38   0.000004    0.02  0.000001  (-0.000320 -0.000465  0.000959)
 46:    916.40   0.002927   14.79  0.000997  ( 0.008847  0.013328 -0.027221)
 47:   1062.67   0.001179    5.96  0.000346  (-0.010668 -0.014616 -0.004322)
 48:   1062.81   0.000014    0.07  0.000004  ( 0.001158  0.001580  0.000437)
 49:   1110.10   0.015883   80.27  0.004465  (-0.021851 -0.026013 -0.057539)
 50:   1110.65   0.000074    0.37  0.000021  ( 0.001482  0.001790  0.003916)
 51:   1424.31   0.121020  611.59  0.026515  ( 0.066152  0.082290  0.123965)
 52:   1427.44   0.000003    0.01  0.000001  (-0.000291 -0.000376 -0.000585)
 53:   1536.07   0.001507    7.61  0.000306  (-0.005955 -0.009028  0.013753)
 54:   1536.15   0.024070  121.64  0.004890  (-0.023824 -0.035935  0.055053)
 55:   1654.59   0.104581  528.51  0.019725  ( 0.081715  0.111924  0.022808)
 56:   1655.52   0.000035    0.18  0.000007  ( 0.001439  0.002027  0.000614)
 57:   1659.79   0.000616    3.11  0.000116  ( 0.004032  0.006306 -0.007729)
 58:   1660.16   0.048257  243.87  0.009071  ( 0.034865  0.053912 -0.070349)
 59:   2114.59   0.637918  3223.78  0.094142  (-0.068228 -0.110110  0.278141)
 60:   2129.61   0.000000    0.00  0.000000  ( 0.000047  0.000036 -0.000085)
 61:   3394.77   0.000360    1.82  0.000033  (-0.003334 -0.004620  0.000803)
 62:   3399.64   0.272372  1376.46  0.025002  ( 0.091288  0.127159 -0.022339)
 63:   3619.00   0.032196  162.71  0.002776  ( 0.030428  0.042091  0.008873)
 64:   3619.18   0.000663    3.35  0.000057  (-0.004380 -0.006028 -0.001280)
 65:   3677.47   0.037818  191.12  0.003209  ( 0.025967  0.032746  0.038244)
 66:   3677.63   0.004056   20.50  0.000344  ( 0.008514  0.010726  0.012515)
 67:   3747.61   0.008044   40.65  0.000670  (-0.004701 -0.008167  0.024105)
 68:   3747.68   0.015124   76.43  0.001259  (-0.006476 -0.011199  0.033046)

* The epsilon (eps) is given for a Dirac delta lineshape.
** The dipole moment derivative (T) already includes vibrational overlap.

The first frequency considered to be a vibration is 6
The total number of vibrations considered is 63


--------------------------
THERMOCHEMISTRY AT 298.15K
--------------------------

Temperature         ...   298.15 K
Pressure            ...     1.00 atm
Total Mass          ...   320.39 AMU
Quasi RRHO          ...     True
Cut-Off Frequency   ...     1.00 cm^-1

Throughout the following assumptions are being made:
  (1) The electronic state is orbitally nondegenerate
      but the spin degeneracy is treated
  (2) There are no thermally accessible electronically excited states
  (3) Hindered rotations indicated by low frequency modes are not
      treated as such but are treated as vibrations and this may
      cause some error
  (4) All equations used are the standard statistical mechanics
      equations for an ideal gas
  (5) All vibrations are strictly harmonic

freq.       8.48  E(vib)   ...       0.58 
freq.      25.61  E(vib)   ...       0.56 
freq.      29.09  E(vib)   ...       0.55 
freq.      30.40  E(vib)   ...       0.55 
freq.      34.48  E(vib)   ...       0.54 
freq.      37.44  E(vib)   ...       0.54 
freq.      53.70  E(vib)   ...       0.52 
freq.      77.01  E(vib)   ...       0.49 
freq.      84.47  E(vib)   ...       0.48 
freq.      98.99  E(vib)   ...       0.46 
freq.     141.05  E(vib)   ...       0.41 
freq.     161.67  E(vib)   ...       0.39 
freq.     174.94  E(vib)   ...       0.38 
freq.     176.33  E(vib)   ...       0.38 
freq.     183.97  E(vib)   ...       0.37 
freq.     194.38  E(vib)   ...       0.36 
freq.     211.53  E(vib)   ...       0.34 
freq.     233.33  E(vib)   ...       0.32 
freq.     242.56  E(vib)   ...       0.31 
freq.     294.59  E(vib)   ...       0.27 
freq.     368.71  E(vib)   ...       0.21 
freq.     388.61  E(vib)   ...       0.20 
freq.     390.68  E(vib)   ...       0.20 
freq.     433.01  E(vib)   ...       0.17 
freq.     443.26  E(vib)   ...       0.17 
freq.     468.47  E(vib)   ...       0.16 
freq.     469.79  E(vib)   ...       0.16 
freq.     499.48  E(vib)   ...       0.14 
freq.     499.83  E(vib)   ...       0.14 
freq.     514.04  E(vib)   ...       0.13 
freq.     517.37  E(vib)   ...       0.13 
freq.     532.26  E(vib)   ...       0.13 
freq.     537.23  E(vib)   ...       0.12 
freq.     646.42  E(vib)   ...       0.09 
freq.     646.58  E(vib)   ...       0.09 
freq.     724.39  E(vib)   ...       0.06 
freq.     725.44  E(vib)   ...       0.06 
freq.     738.52  E(vib)   ...       0.06 
freq.     740.34  E(vib)   ...       0.06 
freq.     914.38  E(vib)   ...       0.03 
freq.     916.40  E(vib)   ...       0.03 
freq.    1062.67  E(vib)   ...       0.02 
freq.    1062.81  E(vib)   ...       0.02 
freq.    1110.10  E(vib)   ...       0.02 
freq.    1110.65  E(vib)   ...       0.02 
freq.    1424.31  E(vib)   ...       0.00 
freq.    1427.44  E(vib)   ...       0.00 
freq.    1536.07  E(vib)   ...       0.00 
freq.    1536.15  E(vib)   ...       0.00 
freq.    1654.59  E(vib)   ...       0.00 
freq.    1655.52  E(vib)   ...       0.00 
freq.    1659.79  E(vib)   ...       0.00 
freq.    1660.16  E(vib)   ...       0.00 
freq.    2114.59  E(vib)   ...       0.00 
freq.    2129.61  E(vib)   ...       0.00 
freq.    3394.77  E(vib)   ...       0.00 
freq.    3399.64  E(vib)   ...       0.00 
freq.    3619.00  E(vib)   ...       0.00 
freq.    3619.18  E(vib)   ...       0.00 
freq.    3677.47  E(vib)   ...       0.00 
freq.    3677.63  E(vib)   ...       0.00 
freq.    3747.61  E(vib)   ...       0.00 
freq.    3747.68  E(vib)   ...       0.00 

------------
INNER ENERGY
------------

The inner energy is: U= E(el) + E(ZPE) + E(vib) + E(rot) + E(trans)
    E(el)   - is the total energy from the electronic structure calculation
              = E(kin-el) + E(nuc-el) + E(el-el) + E(nuc-nuc)
    E(ZPE)  - the the zero temperature vibrational energy from the frequency calculation
    E(vib)  - the the finite temperature correction to E(ZPE) due to population
              of excited vibrational states
    E(rot)  - is the rotational thermal energy
    E(trans)- is the translational thermal energy

Summary of contributions to the inner energy U:
Electronic energy                ...  -3122.06536160 Eh
Zero point energy                ...      0.14725320 Eh      92.40 kcal/mol
Thermal vibrational correction   ...      0.01823330 Eh      11.44 kcal/mol
Thermal rotational correction    ...      0.00141627 Eh       0.89 kcal/mol
Thermal translational correction ...      0.00141627 Eh       0.89 kcal/mol
-----------------------------------------------------------------------
Total thermal energy                  -3121.89704257 Eh


Summary of corrections to the electronic energy:
(perhaps to be used in another calculation)
Total thermal correction                  0.02106584 Eh      13.22 kcal/mol
Non-thermal (ZPE) correction              0.14725320 Eh      92.40 kcal/mol
-----------------------------------------------------------------------
Total correction                          0.16831903 Eh     105.62 kcal/mol


--------
ENTHALPY
--------

The enthalpy is H = U + kB*T
                kB is Boltzmann's constant
Total thermal energy              ...  -3121.89704257 Eh 
Thermal Enthalpy correction       ...      0.00094421 Eh       0.59 kcal/mol
-----------------------------------------------------------------------
Total Enthalpy                    ...  -3121.89609836 Eh


Note: Only C1 symmetry has been detected, increase convergence thresholds 
      if your molecule has a higher symmetry. Symmetry factor of 1.0 is   
      used for the rotational entropy correction. 
 

Note: Rotational entropy computed according to Herzberg 
Infrared and Raman Spectra, Chapter V,1, Van Nostrand Reinhold, 1945 
Point Group:  C1, Symmetry Number:   1  
Rotational constants in cm-1:     0.010790     0.008010     0.004597 

Vibrational entropy computed according to the QRRHO of S. Grimme
Chem.Eur.J. 2012 18 9955 using a reference frequency of 100.0 cm-1


-------
ENTROPY
-------

The entropy contributions are T*S = T*(S(el)+S(vib)+S(rot)+S(trans))
     S(el)   - electronic entropy
     S(vib)  - vibrational entropy
     S(rot)  - rotational entropy
     S(trans)- translational entropy
The entropies will be listed as multiplied by the temperature to get
units of energy

Electronic entropy                ...      0.00103729 Eh      0.65 kcal/mol
Vibrational entropy               ...      0.03458923 Eh     21.71 kcal/mol
Rotational entropy                ...      0.01646869 Eh     10.33 kcal/mol
Translational entropy             ...      0.02052030 Eh     12.88 kcal/mol
-----------------------------------------------------------------------
Final entropy term                ...      0.07261550 Eh     45.57 kcal/mol

In case the symmetry of your molecule has not been determined correctly
or in case you have a reason to use a different symmetry number we print 
out the resulting rotational entropy values for sn=1,12:

 non-linear molecules -----------------------------------
|  sn= 1 | S(rot)=       0.01646869 Eh     10.33 kcal/mol|
|  sn= 2 | S(rot)=       0.01581423 Eh      9.92 kcal/mol|
|  sn= 3 | S(rot)=       0.01543140 Eh      9.68 kcal/mol|
|  sn= 4 | S(rot)=       0.01515977 Eh      9.51 kcal/mol|
|  sn= 5 | S(rot)=       0.01494908 Eh      9.38 kcal/mol|
|  sn= 6 | S(rot)=       0.01477694 Eh      9.27 kcal/mol|
|  sn= 7 | S(rot)=       0.01463139 Eh      9.18 kcal/mol|
|  sn= 8 | S(rot)=       0.01450532 Eh      9.10 kcal/mol|
|  sn= 9 | S(rot)=       0.01439411 Eh      9.03 kcal/mol|
|  sn=10 | S(rot)=       0.01429463 Eh      8.97 kcal/mol|
|  sn=11 | S(rot)=       0.01420464 Eh      8.91 kcal/mol|
|  sn=12 | S(rot)=       0.01412248 Eh      8.86 kcal/mol|
 linear molecules ---------------------------------------
|  Dinfh | S(rot)=       0.01040765 Eh      6.53 kcal/mol|
|  Cinfv | S(rot)=       0.01106210 Eh      6.94 kcal/mol|
 --------------------------------------------------------


-------------------
GIBBS FREE ENERGY
-------------------

The Gibbs free energy is G = H - T*S

Total enthalpy                    ...  -3121.89609836 Eh 
Total entropy correction          ...     -0.07261550 Eh    -45.57 kcal/mol
-----------------------------------------------------------------------
Final Gibbs free energy         ...  -3121.96871387 Eh

For completeness - the Gibbs free energy minus the electronic energy
G-E(el)                           ...      0.09664774 Eh     60.65 kcal/mol


Maximum memory used throughout the entire PROP-calculation: 374.5 MB

--------------------------------
SUGGESTED CITATIONS FOR THIS RUN
--------------------------------

Below you find a list of papers that are relevant to this ORCA run
We neither can nor want to force you to cite these papers, but we appreciate if you do
You receive ORCA, which is the product of decades of hard work by many enthusiastic individuals, for free
The only thing we kindly ask in return is that you cite our papers,
We deeply appreciate it, if you show your appreciation for ORCA by not just citing the generic ORCA reference.

Please note that relegating all ORCA citations to the supporting information does *not* help us.
SI sections are not indexed - citations you put there will not count into any citation statistics
But we need these citations in order to attract the funding resources that allow us to do what we are doing

Therefore, if you are a happy ORCA user, please consider citing a few of the papers listed below in the main body of your paper

In addition to the list printed below, the program has created the file KAPPEW-S5.bibtex that contains the list in bibtex format
You can import this file easily into all common literature databanks and citation aid programs


List of essential papers. We consider these as the minimum necessary citations

  1. Neese,F.
     Software update: the ORCA program system, version 5.0
     WIRES Comput. Molec. Sci., 2022 12(1)e1606
     doi.org/10.1002/wcms.1606

List of papers to cite with high priority. The work reported in these papers was absolutely
necessary for this run to complete.
Our perspective: the developers of density functionals and basis sets usually get cited in chemistry papers
Good! But without the algorithms to do something with them, the functionals or basis sets would not do anything.
Hence, in our opinion, the algorithm design and method developments papers are equally worthy of getting cited

  1. Neese,F.
     An improvement of the resolution of the identity approximation for the formation of the Coulomb matrix
     J. Comp. Chem., 2003 24(14)1740-1747
     doi.org/10.1002/jcc.10318
  2. Neese,F.; Wennmohs,F.; Hansen,A.; Becker,U.
     Efficient, approximate and parallel Hartree-Fock and hybrid DFT calculations. A 'chain-of-spheres' algorithm for the Hartree-Fock exchange
     Chem. Phys., 2009 356(1-3)98-109
     doi.org/10.1016/j.chemphys.2008.10.036
  3. Bykov,D.; Petrenko,T.; Izsak,R.; Kossmann,S.; Becker,U.; Valeev,E.; Neese,F.
     Efficient implementation of the analytic second derivatives of Hartree-Fock and hybrid DFT energies: a detailed analysis of different approximations
     Molec. Phys., 2015 113 1961-1977
     doi.org/10.1080/00268976.2015.1025114
  4. Helmich-Paris,B.; de Souza,B.; Neese,F.; Izsák,R.
     An improved chain of spheres for exchange algorithm
     J. Chem. Phys., 2021 155 104109
     doi.org/doi: 10.1063/5.0058766.
  5. Helmich-Paris,B.
     A trust-region augmented Hessian implementation for restricted and unrestricted Hartree–Fock and Kohn–Sham methods
     J. Chem. Phys., 2021 154 164104
     doi.org/10.1063/5.0040798
  6. Neese,F.
     The SHARK Integral Generation and Digestion System
     J. Comp. Chem., 2022  1-16
     doi.org/10.1002/jcc.26942

List of suggested additional citations. These are papers that are important in the 'surrounding' of 
of this run, or papers that preceded the highly important papers. If you like your results we are grateful for a citation.

  1. Izsak,R.; Neese,F.
     An overlap fitted chain of spheres exchange method
     J. Chem. Phys., 2011 135 144105
     doi.org/10.1063/1.3646921
  2. Izsak,R.; Hansen,A.; Neese,F.
     The resolution of identity and chain of spheres approximations for the LPNO-CCSD singles Fock term
     Molec. Phys., 2012 110 2413-2417
     doi.org/10.1080/00268976.2012.687466
  3. Neese,F.
     The ORCA program system
     WIRES Comput. Molec. Sci., 2012 2(1)73-78
     doi.org/10.1002/wcms.81
  4. Izsak,R.; Neese,F.; Klopper,W.
     Robust fitting techniques in the chain of spheres approximation to the Fock exchange: The role of the complementary space
     J. Chem. Phys., 2013 139 
     doi.org/10.1063/1.4819264
  5. Neese,F.
     Software update: the ORCA program system, version 4.0
     WIRES Comput. Molec. Sci., 2018 8(1)1-6
     doi.org/10.1002/wcms.1327
  6. Neese,F.; Wennmohs,F.; Becker,U.; Riplinger,C.
     The ORCA quantum chemistry program package
     J. Chem. Phys., 2020 152 Art. No. L224108
     doi.org/10.1063/5.0004608

List of optional additional citations

  1. Neese,F.
     Approximate second-order SCF convergence for spin unrestricted wavefunctions
     Chem. Phys. Lett., 2000 325(1-3)93-98
     doi.org/10.1016/s0009-2614(00)00662-x

Timings for individual modules:

Sum of individual times          ...     3410.903 sec (=  56.848 min)
Startup calculation              ...      164.532 sec (=   2.742 min)   4.8 %
SCF iterations                   ...     1763.944 sec (=  29.399 min)  51.7 %
Property integrals               ...      250.375 sec (=   4.173 min)   7.3 %
SCF Response                     ...      669.528 sec (=  11.159 min)  19.6 %
Property calculations            ...      199.640 sec (=   3.327 min)   5.9 %
SCF Gradient evaluation          ...      362.666 sec (=   6.044 min)  10.6 %
Geometry relaxation              ...        0.219 sec (=   0.004 min)   0.0 %
                             ****ORCA TERMINATED NORMALLY****
TOTAL RUN TIME: 0 days 0 hours 57 minutes 28 seconds 340 msec
