
                                 *****************
                                 * O   R   C   A *
                                 *****************

                                            #,                                       
                                            ###                                      
                                            ####                                     
                                            #####                                    
                                            ######                                   
                                           ########,                                 
                                     ,,################,,,,,                         
                               ,,#################################,,                 
                          ,,##########################################,,             
                       ,#########################################, ''#####,          
                    ,#############################################,,   '####,        
                  ,##################################################,,,,####,       
                ,###########''''           ''''###############################       
              ,#####''   ,,,,##########,,,,          '''####'''          '####       
            ,##' ,,,,###########################,,,                        '##       
           ' ,,###''''                  '''############,,,                           
         ,,##''                                '''############,,,,        ,,,,,,###''
      ,#''                                            '''#######################'''  
     '                                                          ''''####''''         
             ,#######,   #######,   ,#######,      ##                                
            ,#'     '#,  ##    ##  ,#'     '#,    #''#        ,####,   ,####,        
            ##       ##  ##   ,#'  ##            #'  '#       #'       #'  '#        
            ##       ##  #######   ##           ,######,      #####,   #    #        
            '#,     ,#'  ##    ##  '#,     ,#' ,#      #,     #,   #   #,  ,#        
             '#######'   ##     ##  '#######'  #'      '#     '####' # '####'        



                #########################################################
                #                        -***-                          #
                #          Department of theory and spectroscopy        #
                #                                                       #
                #                      Frank Neese                      #
                #                                                       #
                #     Directorship, Architecture, Infrastructure        #
                #                    SHARK, DRIVERS                     #
                #        Core code/Algorithms in most modules           #
                #                                                       #
                #        Max Planck Institute fuer Kohlenforschung      #
                #                Kaiser Wilhelm Platz 1                 #
                #                 D-45470 Muelheim/Ruhr                 #
                #                      Germany                          #
                #                                                       #
                #                  All rights reserved                  #
                #                        -***-                          #
                #########################################################


                         Program Version 6.0.1  -  RELEASE   -


 With contributions from (in alphabetic order):
[Max-Planck-Institut fuer Kohlenforschung]                               
  Daniel Aravena         : Magnetic Suceptibility                        
  Michael Atanasov       : Ab Initio Ligand Field Theory (pilot matlab implementation)
  Alexander A. Auer      : GIAO ZORA, VPT2 properties, NMR spectrum      
  Ute Becker             : All parallelization in ORCA, NUMFREQ, NUMCALC 
  Giovanni Bistoni       : ED, misc. LED, open-shell LED, HFLD           
  Martin Brehm           : Molecular dynamics                            
  Dmytro Bykov           : pre 5.0 version of the SCF Hessian            
  Marcos Casanova-Páez   : Triplet and SCS-CIS(D). UHF-(DLPNO)-IP/EA/STEOM-CCSD. UHF-CVS-IP/STEOM-CCSD   
  Vijay G. Chilkuri      : MRCI spin determinant printing, contributions to CSF-ICE 
  Pauline Colinet        : FMM embedding                                 
  Dipayan Datta          : RHF DLPNO-CCSD density                        
  Achintya Kumar Dutta   : EOM-CC, STEOM-CC                              
  Nicolas Foglia         : Exact transition moments, OPA infrastructure, MCD improvements    
  Dmitry Ganyushin       : Spin-Orbit,Spin-Spin,Magnetic field MRCI      
  Miquel Garcia-Rates    : C-PCM and meta-GGA Hessian, CCSD/C-PCM, Gaussian charge scheme 
  Tiago L. C. Gouveia    : GS-ROHF, GS-ROCIS                             
  Yang Guo               : DLPNO-NEVPT2, F12-NEVPT2, CIM, IAO-localization        
  Andreas Hansen         : Spin unrestricted coupled pair/coupled cluster methods 
  Ingolf Harden          : AUTO-CI MPn and infrastructure                
  Benjamin Helmich-Paris : MC-RPA, TRAH-(SCF,CASSCF), AVAS, COSX integrals, SCF dyn. polar. 
  Lee Huntington         : MR-EOM, pCC                                   
  Robert Izsak           : Overlap fitted RIJCOSX, COSX-SCS-MP3, EOM     
  Riya Kayal             : Wick's Theorem for AUTO-CI, AUTO-CI UHF-CCSDT 
  Emily Kempfer          : AUTO-CI, RHF CISDT and CCSDT                  
  Christian Kollmar      : KDIIS, OOCD, Brueckner-CCSD(T), CCSD density, CASPT2, CASPT2-K, improved NEVPT2 
  Axel Koslowski         : Symmetry handling                             
  Simone Kossmann        : meta-GGA functionals, TD-DFT gradient, OOMP2, (MP2 Hessian; deprecated post 5.0) 
  Lucas Lang             : DCDCAS                                        
  Marvin Lechner         : AUTO-CI (C++ implementation), FIC-MRCC        
  Spencer Leger          : CASSCF response                               
  Dagmar Lenk            : GEPOL surface, SMD, ORCA-2-JSON               
  Dimitrios Liakos       : Extrapolation schemes; Compound Job, initial MDCI parallelization 
  Dimitrios Manganas     : Further ROCIS development; embedding schemes. LFT, Crystal Embedding 
  Dimitrios Pantazis     : SARC Basis sets                               
  Anastasios Papadopoulos: AUTO-CI, single reference methods and gradients 
  Taras Petrenko         : pre 6.0 DFT Hessian and TD-DFT gradient, (ASA, deprecated), ECA, 1-Electron XAS/XES, NRVS 
  Peter Pinski           : DLPNO-MP2, DLPNO-MP2 Gradient                 
  Christoph Reimann      : Effective Core Potentials                     
  Marius Retegan         : Local ZFS, SOC                                
  Christoph Riplinger    : Optimizer, TS searches, QM/MM, DLPNO-CCSD(T), (RO)-DLPNO pert. Triples 
  Michael Roemelt        : Original ROCIS implementation                 
  Masaaki Saitow         : Open-shell DLPNO-CCSD energy and density      
  Barbara Sandhoefer     : DKH picture change effects                    
  Kantharuban Sivalingam : CASSCF convergence/infrastructure, NEVPT2 and variants, FIC-MRCI 
  Bernardo de Souza      : ESD, SOC TD-DFT                               
  Georgi L. Stoychev     : AutoAux, RI-MP2 NMR, DLPNO-MP2 response, X2C  
  Van Anh Tran           : RI-MP2 g-tensors                              
  Willem Van den Heuvel  : Paramagnetic NMR                              
  Zikuan Wang            : NOTCH, Electric field optimization            
  Frank Wennmohs         : Technical directorship and infrastructure     
  Hang Xu                : AUTO-CI-Response properties                   
                                                                         
[FACCTs GmbH]                                                            
  Markus Bursch, Miquel Garcia-Rates, Christoph Riplinger, Bernardo de Souza, Georgi L. Stoychev 
                                                                 
  APM, Basis sets (HGBS, AHGBS, def-TZVP (Ac-Lr), def2-XVPD (La-Lu)), CI-OPT, improved COSX, DLPNO-Multilevel,           
  DOCKER, DRACO, updates on ESD, GOAT, IRC, LR-CPCM, MBIS, meta-GGA TD-DFT gradient, ML-optimized integration grids, 
  MM, NACMEs, nearIR, NEB, NEB-TS, NL-DFT gradient (VV10), 2- and 3-layer-ONIOM, interface openCOSMO-RS, QMMM,   
  Crystal-QMMM, SF, symmetry and pop. for TD-DFT, r2SCAN hybrids, SOLVATOR                                   
                                                                         
[Other institutions]                                                     
  V. Asgeirsson          : NEB                                           
  Christoph Bannwarth    : sTDA-DFT, sTD-DFT, PBEh-3c, B97-3c, D3        
  Sebastian Ehlert       : rSCAN, r2SCAN, r2SCAN-3c, D4, dhf basis sets  
  Marvin Friede          : D4 for Fr, Ra, Ac-Lr                          
  Lars Goerigk           : TD-DFT with DH, B97 family of functionals     
  Stefan Grimme          : VdW corrections, initial TS optimization, DFT functionals, gCP, sTDA/sTD-DF 
  Waldemar Hujo          : DFT-NL                                        
  H. Jonsson             : NEB                                           
  Holger Kruse           : gCP                                           
  Marcel Mueller         : wB97X-3c, vDZP basis set                      
  Hagen Neugebauer       : wr2SCAN                                       
  Tobias Risthaus        : range-separated hybrid DFT                    
  Lukas Wittmann         : regularized MP2, r2SCAN double-hybrids, wr2SCAN        
                                                                         
We gratefully acknowledge several colleagues who have allowed us to      
interface, adapt or use parts of their codes:                            
  Ed Valeev, F. Pavosevic, A. Kumar             : LibInt (2-el integral package), F12 methods 
  Garnet Chan, S. Sharma, J. Yang, R. Olivares  : DMRG                   
  Ulf Ekstrom                                   : XCFun DFT Library      
  Mihaly Kallay                                 : mrcc  (arbitrary order and MRCC methods)
  Frank Weinhold                                : gennbo (NPA and NBO analysis)           
  Simon Mueller                                 : openCOSMO-RS                            
  Christopher J. Cramer and Donald G. Truhlar   : smd solvation model                     
  S Lehtola, MJT Oliveira, MAL Marques          : LibXC Library                           
  Liviu Ungur et al                             : ANISO software                          


 Your calculation uses the libint2 library for the computation of 2-el integrals
 For citations please refer to: http://libint.valeyev.net

 Your ORCA version has been built with support for libXC version: 6.2.2
 For citations please refer to: https://libxc.gitlab.io

 This ORCA versions uses:
   CBLAS   interface :  Fast vector & matrix operations
   LAPACKE interface :  Fast linear algebra routines
   SCALAPACK package :  Parallel linear algebra routines
   Shared memory     :  Shared parallel matrices
   BLAS/LAPACK       :  OpenBLAS 0.3.27  USE64BITINT DYNAMIC_ARCH NO_AFFINITY Cooperlake SINGLE_THREADED
        Core in use  :  Cooperlake
   Copyright (c) 2011-2014, The OpenBLAS Project


NOTE: MaxCore=3600 MB was set to SCF,MP2,MDCI,CIPSI,MRCI and CIS
      => If you want to overwrite this, your respective input block should be placed after the MaxCore statement
Warning: RI is on but no J-basis has been assigned. Assigning Def2/J (nothing to worry about!)
================================================================================

----- Orbital basis set information -----
Your calculation utilizes the basis: def2-TZVP
   F. Weigend and R. Ahlrichs, Phys. Chem. Chem. Phys. 7, 3297 (2005).

----- AuxJ basis set information -----
Your calculation utilizes the auxiliary basis: def2/J
   F. Weigend, Phys. Chem. Chem. Phys. 8, 1057 (2006).

================================================================================
                                        WARNINGS
                       Please study these warnings very carefully!
================================================================================


WARNING: your system is open-shell and RHF/RKS was chosen
  ===> : WILL SWITCH to UHF/UKS


WARNING: Geometry Optimization
  ===> : Switching off AutoStart
         For restart on a previous wavefunction, please use MOREAD

================================================================================
                                       INPUT FILE
================================================================================
NAME = OKIJUQ-S5.inp
|  1> ! PBE0 def2-TZVP  SlowConv TightOpt Freq DEFGRID3
|  2> 
|  3> %maxcore 3600
|  4> 
|  5> %pal
|  6>     nprocs 16
|  7> end
|  8> 
|  9> *xyz 0 3
| 10> Cr 2.083107379365775 3.043212840782474 4.6089868858136205
| 11> N 3.3078710862636136 1.4595223704402067 5.164324194222664
| 12> N 2.2586735195866625 1.5107229205146597 3.219113508207644
| 13> C 3.135382072659541 0.8789025282445537 3.9859941837553183
| 14> C 4.193232475771553 0.9117539173992706 6.1683100085174125
| 15> H 4.361768420965312 -0.15078896442042256 5.960119161428486
| 16> C 1.8920157429618985 1.0169381413988252 1.909922001106872
| 17> H 2.131154425250744 -0.052845022536990936 1.8483553423876395
| 18> C 3.863738646689854 -0.36837031636063855 3.556484345743945
| 19> H 3.922889351961901 -0.4509042010565485 2.4739588510972284
| 20> H 3.559744498994307 -1.2835758742750243 4.333668017242291
| 21> H 4.9132078674557995 -0.3417621894255064 3.938893838827967
| 22> C 0.387816058090901 1.1155249481114813 1.702916707422549
| 23> H -0.1443765794595378 0.5726334319324422 2.490017973361977
| 24> H 0.09822297690418358 0.6947185784865406 0.7384376428503533
| 25> H 0.05516706756052612 2.1529319509002907 1.7312098862318093
| 26> C 3.5468733137875916 0.9768122829848295 7.543551397228829
| 27> H 3.361564823738261 2.0094901858207437 7.841656373659493
| 28> H 4.1965860565786945 0.5177190991856507 8.295140724255612
| 29> H 2.5925234983155585 0.4496859389182014 7.5409407283347525
| 30> C 5.557079988258352 1.5997567691106258 6.151391663101837
| 31> H 6.048410717999921 1.4756814141903034 5.1800437972709545
| 32> H 6.216902460233945 1.2002487505535622 6.923294829459762
| 33> H 5.44827423563969 2.6719044610975695 6.319648617759184
| 34> C 2.6607334535106486 1.7269975731487401 0.8024836709213535
| 35> H 2.4830975284852252 2.8052584354775845 0.840912498418154
| 36> H 2.3553443346749257 1.3554797986423601 -0.18391408374337184
| 37> H 3.7322813146095095 1.5597889314414746 0.9121673294712609
| 38> N 0.8590318220225667 4.627399302371672 4.053337239862498
| 39> N 1.907283918176317 4.575444040470053 5.999046511234037
| 40> C 1.0311123226120131 5.2076768996564375 5.2318884157820795
| 41> C -0.023509038350505822 5.176980591360839 3.047749431342698
| 42> H -0.1804440614708896 6.244483734508831 3.249762752186481
| 43> C 2.270836654973451 5.067273446583722 7.3097834132200585
| 44> H 2.0200256705145065 6.13177717047483 7.378060066696258
| 45> C 0.30311966229435355 6.455145055435749 5.6614295630826215
| 46> H 0.01894260943535124 6.377148157124546 6.728649908672978
| 47> H 1.1695406758 7.3238721679 5.9529160224
| 48> H -0.578185693590651 6.650941147221124 5.055772691215639
| 49> C 3.774136969554155 4.970575641092208 7.519646181431061
| 50> H 4.302838791885728 5.518918527846699 6.740094637892663
| 51> H 4.05309162391691 5.389232510097972 8.492075468567757
| 52> H 4.109533552145662 3.933079146314936 7.488706287547432
| 53> C 0.6245988728282403 5.108967497590557 1.672997316421452
| 54> H 0.8058609205117329 4.076207519898309 1.3761489932508644
| 55> H -0.015459023426420979 5.569319613246063 0.917685793300199
| 56> H 1.5860403922402344 5.630448335912421 1.675526844350501
| 57> C -1.387607673351468 4.4975353968666605 3.061641207346026
| 58> H -1.8780651245541942 4.642256013693119 4.024830855485979
| 59> H -2.0382407893758483 4.9093355696184835 2.2814052396294446
| 60> H -1.2832161801317352 3.4217734874749026 2.89646011292183
| 61> C 1.4977189461437674 4.348029944068197 8.414438458519989
| 62> H 1.6803792467268286 3.273692024154443 8.374141934932464
| 63> H 1.7865703165737397 4.702708228930344 9.404035706367244
| 64> H 0.4177017500988488 4.494039196357179 8.29846034736716
| 65> *
| 66> 
| 67>                          ****END OF INPUT****
================================================================================

                       *****************************
                       * Geometry Optimization Run *
                       *****************************

Geometry optimization settings:
Update method            Update   .... BFGS
Choice of coordinates    CoordSys .... (2022) Redundant Internals
Initial Hessian          InHess   .... Almloef's Model
Max. no of cycles        MaxIter  .... 165

Convergence Tolerances:
Energy Change            TolE     ....  1.0000e-06 Eh
Max. Gradient            TolMAXG  ....  1.0000e-04 Eh/bohr
RMS Gradient             TolRMSG  ....  3.0000e-05 Eh/bohr
Max. Displacement        TolMAXD  ....  1.0000e-03 bohr
RMS Displacement         TolRMSD  ....  6.0000e-04 bohr
Strict Convergence                .... False

------------------------------------------------------------------------------
                        ORCA OPTIMIZATION COORDINATE SETUP
------------------------------------------------------------------------------

The optimization will be done in redundant internal coordinates (2022)
Making redundant internal coordinates   ...  (2022 redundants) done
Evaluating the initial hessian          ...  (Almloef) done
Evaluating the coordinates              ...  done
Calculating the B-matrix                .... done
Calculating the G-matrix                .... done
Diagonalizing the G-matrix              .... done
Small eigenvalue found = 5.509e-03
Small eigenvalue found = 7.679e-03
Small eigenvalue found = 1.597e-02
Small eigenvalue found = 1.685e-02
Small eigenvalue found = 2.093e-02
Small eigenvalue found = 2.365e-02
Small eigenvalue found = 2.760e-02
The first mode is                       ....  218
The number of degrees of freedom        ....  159

    -----------------------------------------------------------------
                    Redundant Internal Coordinates


    -----------------------------------------------------------------
         Definition                    Initial Value    Approx d2E/dq
    -----------------------------------------------------------------
      1. B(N   1,Cr  0)                  2.0776         0.452835   
      2. B(N   2,Cr  0)                  2.0763         0.455013   
      3. B(C   3,Cr  0)                  2.4859         0.112835   
      4. B(C   3,N   1)                  1.3249         0.710811   
      5. B(C   3,N   2)                  1.3251         0.710233   
      6. B(C   4,N   1)                  1.4463         0.454974   
      7. B(H   5,C   4)                  1.0958         0.352528   
      8. B(C   6,N   2)                  1.4465         0.454777   
      9. B(H   7,C   6)                  1.0979         0.349782   
     10. B(C   8,C   3)                  1.5069         0.406698   
     11. B(H   9,C   8)                  1.0873         0.363720   
     12. B(H  10,C   8)                  1.2386         0.208644   
     13. B(H  11,C   8)                  1.1173         0.325753   
     14. B(C  12,C   6)                  1.5216         0.385319   
     15. B(H  13,C  12)                  1.0943         0.354459   
     16. B(H  14,C  12)                  1.0914         0.358248   
     17. B(H  15,C  12)                  1.0898         0.360362   
     18. B(C  16,C   4)                  1.5210         0.386198   
     19. B(H  17,C  16)                  1.0907         0.359173   
     20. B(H  18,C  16)                  1.0944         0.354285   
     21. B(H  19,C  16)                  1.0903         0.359765   
     22. B(C  20,C   4)                  1.5276         0.376814   
     23. B(H  21,C  20)                  1.0956         0.352781   
     24. B(H  22,C  20)                  1.0912         0.358462   
     25. B(H  23,C  20)                  1.0907         0.359161   
     26. B(C  24,C   6)                  1.5237         0.382382   
     27. B(H  25,C  24)                  1.0935         0.355538   
     28. B(H  26,C  24)                  1.0974         0.350453   
     29. B(H  27,C  24)                  1.0900         0.360037   
     30. B(N  28,Cr  0)                  2.0777         0.452742   
     31. B(N  29,Cr  0)                  2.0763         0.455087   
     32. B(C  30,N  29)                  1.3251         0.710227   
     33. B(C  30,N  28)                  1.3249         0.710828   
     34. B(C  30,Cr  0)                  2.4859         0.112838   
     35. B(C  31,N  28)                  1.4464         0.454846   
     36. B(H  32,C  31)                  1.0977         0.350024   
     37. B(C  33,N  29)                  1.4464         0.454861   
     38. B(H  34,C  33)                  1.0958         0.352533   
     39. B(C  35,C  30)                  1.5069         0.406706   
     40. B(H  36,C  35)                  1.1072         0.338102   
     41. B(H  37,C  35)                  1.2611         0.192073   
     42. B(H  38,C  35)                  1.0871         0.363914   
     43. B(C  39,C  33)                  1.5210         0.386196   
     44. B(H  40,C  39)                  1.0899         0.360218   
     45. B(H  41,C  39)                  1.0949         0.353734   
     46. B(H  42,C  39)                  1.0908         0.359042   
     47. B(C  43,C  31)                  1.5214         0.385586   
     48. B(H  44,C  43)                  1.0898         0.360423   
     49. B(H  45,C  43)                  1.0918         0.357687   
     50. B(H  46,C  43)                  1.0938         0.355156   
     51. B(C  47,C  31)                  1.5240         0.381888   
     52. B(H  48,C  47)                  1.0905         0.359417   
     53. B(H  49,C  47)                  1.0962         0.351981   
     54. B(H  50,C  47)                  1.0934         0.355677   
     55. B(C  51,C  33)                  1.5282         0.376103   
     56. B(H  52,C  51)                  1.0905         0.359439   
     57. B(H  53,C  51)                  1.0902         0.359836   
     58. B(H  54,C  51)                  1.0960         0.352255   
     59. A(C   3,Cr  0,N  29)          147.7939         0.379133   
     60. A(N   1,Cr  0,N  29)          115.6895         0.484050   
     61. A(N  28,Cr  0,N  29)           64.3082         0.484031   
     62. A(N   2,Cr  0,N  28)          115.6941         0.484017   
     63. A(N  28,Cr  0,C  30)           32.1990         0.378796   
     64. A(N  29,Cr  0,C  30)           32.2046         0.379135   
     65. A(N   1,Cr  0,C  30)          147.8002         0.378809   
     66. A(N   2,Cr  0,C  30)          147.7971         0.379124   
     67. A(C   3,Cr  0,N  28)          147.8017         0.378794   
     68. A(N   2,Cr  0,C   3)           32.2044         0.379122   
     69. A(N   1,Cr  0,C   3)           32.1990         0.378807   
     70. A(N   1,Cr  0,N   2)           64.3082         0.484035   
     71. A(C   3,N   1,C   4)          122.0791         0.415393   
     72. A(Cr  0,N   1,C   3)           91.1219         0.466469   
     73. A(Cr  0,N   1,C   4)          146.6252         0.430212   
     74. A(C   3,N   2,C   6)          121.9209         0.415301   
     75. A(Cr  0,N   2,C   6)          146.7616         0.430549   
     76. A(Cr  0,N   2,C   3)           91.1727         0.466809   
     77. A(N   1,C   3,C   8)          123.5947         0.409851   
     78. A(Cr  0,C   3,N   1)           56.6791         0.366221   
     79. A(N   1,C   3,N   2)          113.0722         0.450008   
     80. A(Cr  0,C   3,N   2)           56.6228         0.366170   
     81. A(N   2,C   3,C   8)          123.3326         0.409792   
     82. A(N   1,C   4,C  16)          110.5676         0.375657   
     83. A(N   1,C   4,C  20)          111.6076         0.374065   
     84. A(H   5,C   4,C  20)          107.2948         0.323648   
     85. A(C  16,C   4,C  20)          111.7250         0.365963   
     86. A(N   1,C   4,H   5)          109.2386         0.331860   
     87. A(H   5,C   4,C  16)          106.1784         0.324958   
     88. A(N   2,C   6,H   7)          109.1578         0.331407   
     89. A(C  12,C   6,C  24)          111.6961         0.366741   
     90. A(H   7,C   6,C  24)          107.6640         0.324012   
     91. A(N   2,C   6,C  24)          111.7696         0.374985   
     92. A(N   2,C   6,C  12)          110.5858         0.375481   
     93. A(H   7,C   6,C  12)          105.7136         0.324419   
     94. A(H  10,C   8,H  11)           91.9125         0.263384   
     95. A(H   9,C   8,H  11)          106.9464         0.286759   
     96. A(C   3,C   8,H  11)          109.6788         0.323506   
     97. A(H   9,C   8,H  10)          125.5920         0.267790   
     98. A(C   3,C   8,H  10)          108.3086         0.301013   
     99. A(C   3,C   8,H   9)          111.8955         0.329431   
    100. A(H  14,C  12,H  15)          107.9976         0.290637   
    101. A(H  13,C  12,H  15)          107.7664         0.290152   
    102. A(C   6,C  12,H  15)          111.0939         0.326012   
    103. A(C   6,C  12,H  14)          110.9500         0.325697   
    104. A(C   6,C  12,H  13)          110.5350         0.325128   
    105. A(H  13,C  12,H  14)          108.3790         0.289885   
    106. A(H  18,C  16,H  19)          108.5712         0.290055   
    107. A(H  17,C  16,H  19)          108.0414         0.290679   
    108. A(C   4,C  16,H  19)          110.4353         0.326045   
    109. A(H  17,C  16,H  18)          108.0791         0.289980   
    110. A(C   4,C  16,H  18)          110.5313         0.325223   
    111. A(C   4,C  16,H  17)          111.0898         0.325957   
    112. A(H  22,C  20,H  23)          108.1238         0.290512   
    113. A(H  21,C  20,H  23)          107.0274         0.289785   
    114. A(C   4,C  20,H  23)          110.6056         0.324640   
    115. A(H  21,C  20,H  22)          108.3319         0.289696   
    116. A(C   4,C  20,H  22)          111.5371         0.324536   
    117. A(C   4,C  20,H  21)          111.0505         0.323686   
    118. A(H  26,C  24,H  27)          108.1845         0.289595   
    119. A(H  25,C  24,H  27)          107.9038         0.290250   
    120. A(C   6,C  24,H  27)          110.5691         0.325554   
    121. A(H  25,C  24,H  26)          108.6761         0.289025   
    122. A(C   6,C  24,H  26)          110.8022         0.324114   
    123. A(C   6,C  24,H  25)          110.6120         0.324881   
    124. A(C  30,N  28,C  31)          122.0914         0.415374   
    125. A(Cr  0,N  28,C  31)          146.6281         0.430174   
    126. A(Cr  0,N  28,C  30)           91.1192         0.466453   
    127. A(C  30,N  29,C  33)          121.9103         0.415314   
    128. A(Cr  0,N  29,C  33)          146.7567         0.430576   
    129. A(Cr  0,N  29,C  30)           91.1743         0.466822   
    130. A(N  29,C  30,C  35)          123.3253         0.409792   
    131. A(N  28,C  30,C  35)          123.6012         0.409854   
    132. A(N  28,C  30,N  29)          113.0731         0.450010   
    133. A(Cr  0,C  30,N  29)           56.6212         0.366171   
    134. A(Cr  0,C  30,N  28)           56.6818         0.366224   
    135. A(C  43,C  31,C  47)          111.6913         0.366704   
    136. A(H  32,C  31,C  47)          107.6928         0.323980   
    137. A(N  28,C  31,C  47)          111.7403         0.374911   
    138. A(H  32,C  31,C  43)          105.7040         0.324493   
    139. A(N  28,C  31,C  43)          110.5673         0.375536   
    140. A(N  28,C  31,H  32)          109.1952         0.331453   
    141. A(C  39,C  33,C  51)          111.7388         0.365845   
    142. A(N  29,C  33,C  51)          111.5837         0.373927   
    143. A(H  34,C  33,C  51)          107.2407         0.323548   
    144. A(H  34,C  33,C  39)          106.2242         0.324958   
    145. A(N  29,C  33,C  39)          110.6006         0.375640   
    146. A(N  29,C  33,H  34)          109.2240         0.331847   
    147. A(H  37,C  35,H  38)          124.1713         0.264494   
    148. A(H  36,C  35,H  38)          109.9762         0.288455   
    149. A(C  30,C  35,H  38)          112.4538         0.329461   
    150. A(H  36,C  35,H  37)           90.1188         0.261596   
    151. A(C  30,C  35,H  37)          107.7131         0.297079   
    152. A(C  30,C  35,H  36)          109.9046         0.325490   
    153. A(H  41,C  39,H  42)          108.0924         0.289892   
    154. A(H  40,C  39,H  42)          108.0039         0.290720   
    155. A(C  33,C  39,H  42)          111.1287         0.325937   
    156. A(H  40,C  39,H  41)          108.6200         0.290041   
    157. A(C  33,C  39,H  41)          110.4916         0.325140   
    158. A(C  33,C  39,H  40)          110.4127         0.326113   
    159. A(H  45,C  43,H  46)          108.4139         0.289903   
    160. A(H  44,C  43,H  46)          107.8340         0.290250   
    161. A(C  31,C  43,H  46)          110.5520         0.325270   
    162. A(H  44,C  43,H  45)          107.9778         0.290573   
    163. A(C  31,C  43,H  45)          110.8872         0.325650   
    164. A(C  31,C  43,H  44)          111.0614         0.326059   
    165. A(H  49,C  47,H  50)          108.5873         0.289239   
    166. A(H  48,C  47,H  50)          107.8755         0.290189   
    167. A(C  31,C  47,H  50)          110.5983         0.324833   
    168. A(H  48,C  47,H  49)          108.1715         0.289714   
    169. A(C  31,C  47,H  49)          110.9336         0.324276   
    170. A(C  31,C  47,H  48)          110.5756         0.325392   
    171. A(H  53,C  51,H  54)          108.2886         0.289802   
    172. A(H  52,C  51,H  54)          107.0014         0.289752   
    173. A(C  33,C  51,H  54)          111.0598         0.323506   
    174. A(H  52,C  51,H  53)          108.0396         0.290722   
    175. A(C  33,C  51,H  53)          111.6537         0.324639   
    176. A(C  33,C  51,H  52)          110.6238         0.324580   
    177. D(C   3,N   1,Cr  0,C  30)   -179.9857         0.002579   
    178. D(C   4,N   1,Cr  0,C   3)    174.4602         0.002579   
    179. D(C   3,N   1,Cr  0,N   2)      3.4802         0.002579   
    180. D(C   3,N   1,Cr  0,N  29)   -176.5320         0.002579   
    181. D(C   4,N   1,Cr  0,N   2)    177.9404         0.002579   
    182. D(C   4,N   1,Cr  0,C  30)     -5.5255         0.002579   
    183. D(C   4,N   1,Cr  0,N  29)     -2.0718         0.002579   
    184. D(C   6,N   2,Cr  0,C   3)   -174.9314         0.002589   
    185. D(C   3,N   2,Cr  0,N   1)     -3.4797         0.002589   
    186. D(C   6,N   2,Cr  0,C  30)      5.0545         0.002589   
    187. D(C   6,N   2,Cr  0,N   1)   -178.4111         0.002589   
    188. D(C   3,N   2,Cr  0,N  28)    176.4928         0.002589   
    189. D(C   3,N   2,Cr  0,C  30)    179.9859         0.002589   
    190. D(C   6,N   2,Cr  0,N  28)      1.5614         0.002589   
    191. D(C   8,C   3,N   2,C   6)      2.3180         0.045573   
    192. D(N   1,C   3,Cr  0,N   2)   -174.1087         0.001569   
    193. D(C   8,C   3,N   1,C   4)     -1.9926         0.045656   
    194. D(Cr  0,C   3,N   2,C   6)    176.7293         0.045573   
    195. D(N   1,C   3,N   2,C   6)   -177.9215         0.045573   
    196. D(C   8,C   3,N   1,Cr  0)    174.4140         0.045656   
    197. D(N   2,C   3,Cr  0,N  29)    179.9791         0.001569   
    198. D(Cr  0,C   3,N   1,C   4)   -176.4066         0.045656   
    199. D(C   8,C   3,N   2,Cr  0)   -174.4113         0.045573   
    200. D(N   2,C   3,N   1,C   4)    178.2477         0.045656   
    201. D(N   2,C   3,Cr  0,N  28)     -5.9380         0.001569   
    202. D(N   2,C   3,Cr  0,N   1)    174.1087         0.001569   
    203. D(N   1,C   3,Cr  0,N  29)      5.8705         0.001569   
    204. D(N   1,C   3,N   2,Cr  0)      5.3492         0.045573   
    205. D(N   2,C   3,N   1,Cr  0)     -5.3457         0.045656   
    206. D(N   1,C   3,Cr  0,N  28)    179.9533         0.001569   
    207. D(H   5,C   4,N   1,Cr  0)    165.9504         0.017664   
    208. D(C  20,C   4,N   1,Cr  0)    -75.5664         0.017664   
    209. D(C  16,C   4,N   1,C   3)   -137.0876         0.017664   
    210. D(C  16,C   4,N   1,Cr  0)     49.4532         0.017664   
    211. D(C  20,C   4,N   1,C   3)     97.8929         0.017664   
    212. D(H   5,C   4,N   1,C   3)    -20.5903         0.017664   
    213. D(H   7,C   6,N   2,Cr  0)   -165.2228         0.017649   
    214. D(C  12,C   6,N   2,Cr  0)    -49.3263         0.017649   
    215. D(C  24,C   6,N   2,Cr  0)     75.7887         0.017649   
    216. D(C  12,C   6,N   2,C   3)    136.6471         0.017649   
    217. D(H   7,C   6,N   2,C   3)     20.7506         0.017649   
    218. D(C  24,C   6,N   2,C   3)    -98.2379         0.017649   
    219. D(H  10,C   8,Cr  0,N   1)     55.2824         0.001500   
    220. D(H  11,C   8,C   3,N   2)    142.3811         0.013109   
    221. D(H  10,C   8,C   3,N   2)   -118.6633         0.013109   
    222. D(H  10,C   8,C   3,N   1)     61.6013         0.013109   
    223. D(H   9,C   8,C   3,N   2)     23.8681         0.013109   
    224. D(H  11,C   8,Cr  0,N  29)    -32.5772         0.001500   
    225. D(H  11,C   8,Cr  0,N   2)    147.4438         0.001500   
    226. D(H  11,C   8,Cr  0,N   1)    -44.0086         0.001500   
    227. D(H  10,C   8,Cr  0,N  29)     66.7138         0.001500   
    228. D(H  11,C   8,Cr  0,N  28)    135.9450         0.001500   
    229. D(H  10,C   8,Cr  0,N   2)   -113.2653         0.001500   
    230. D(H   9,C   8,C   3,N   1)   -155.8673         0.013109   
    231. D(H  10,C   8,Cr  0,N  28)   -124.7640         0.001500   
    232. D(H   9,C   8,Cr  0,N  28)     19.2465         0.001500   
    233. D(H   9,C   8,Cr  0,N  29)   -149.2757         0.001500   
    234. D(H  11,C   8,C   3,N   1)    -37.3543         0.013109   
    235. D(H   9,C   8,Cr  0,N   1)   -160.7071         0.001500   
    236. D(H   9,C   8,Cr  0,N   2)     30.7452         0.001500   
    237. D(H  13,C  12,C   6,N   2)    -56.6680         0.011817   
    238. D(H  13,C  12,C   6,C  24)    178.1753         0.011817   
    239. D(H  13,C  12,C   6,H   7)     61.3555         0.011817   
    240. D(H  14,C  12,C   6,C  24)     57.9140         0.011817   
    241. D(H  14,C  12,C   6,H   7)    -58.9057         0.011817   
    242. D(H  14,C  12,C   6,N   2)   -176.9293         0.011817   
    243. D(H  18,C  16,C   4,C  20)    -57.8226         0.011868   
    244. D(H  18,C  16,C   4,H   5)     58.8449         0.011868   
    245. D(H  18,C  16,C   4,N   1)    177.2244         0.011868   
    246. D(H  17,C  16,C   4,C  20)     62.1512         0.011868   
    247. D(H  17,C  16,C   4,H   5)    178.8187         0.011868   
    248. D(H  17,C  16,C   4,N   1)    -62.8018         0.011868   
    249. D(H  22,C  20,C   4,H   5)    -61.5762         0.011327   
    250. D(H  22,C  20,C   4,C  16)     54.4129         0.011327   
    251. D(H  22,C  20,C   4,N   1)    178.7859         0.011327   
    252. D(H  21,C  20,C   4,C  16)    175.3571         0.011327   
    253. D(H  21,C  20,C   4,H   5)     59.3680         0.011327   
    254. D(H  21,C  20,C   4,N   1)    -60.2699         0.011327   
    255. D(H  26,C  24,C   6,C  12)    -54.3086         0.011646   
    256. D(H  25,C  24,C   6,C  12)     66.2796         0.011646   
    257. D(H  25,C  24,C   6,H   7)   -178.0877         0.011646   
    258. D(H  25,C  24,C   6,N   2)    -58.2178         0.011646   
    259. D(H  26,C  24,C   6,H   7)     61.3241         0.011646   
    260. D(H  26,C  24,C   6,N   2)   -178.8061         0.011646   
    261. D(C  31,N  28,N   1,C   3)      5.2914         0.001500   
    262. D(C  30,N  28,N   1,C   4)     -5.5835         0.001500   
    263. D(C  30,N  28,N   1,C   3)    179.9753         0.001500   
    264. D(C  31,N  28,Cr  0,C  30)   -174.6649         0.002578   
    265. D(C  31,N  28,Cr  0,N  29)   -178.1461         0.002578   
    266. D(C  31,N  28,Cr  0,C   3)      5.3494         0.002578   
    267. D(C  31,N  28,Cr  0,N   2)      1.8417         0.002578   
    268. D(C  30,N  28,Cr  0,C   3)   -179.9857         0.002578   
    269. D(C  30,N  28,Cr  0,N   2)    176.5065         0.002578   
    270. D(C  31,N  28,N   1,C   4)    179.7327         0.001500   
    271. D(C  30,N  28,Cr  0,N  29)     -3.4813         0.002578   
    272. D(C  33,N  29,N   2,C   6)    179.7126         0.001500   
    273. D(C  33,N  29,N   2,C   3)     -5.3475         0.001500   
    274. D(C  30,N  29,N   2,C   6)      5.0286         0.001500   
    275. D(C  30,N  29,N   2,C   3)    179.9685         0.001500   
    276. D(C  33,N  29,Cr  0,C  30)    174.6924         0.002589   
    277. D(C  33,N  29,Cr  0,N  28)    178.1732         0.002589   
    278. D(C  33,N  29,Cr  0,C   3)     -5.3216         0.002589   
    279. D(C  33,N  29,Cr  0,N   1)     -1.8543         0.002589   
    280. D(C  30,N  29,Cr  0,N  28)      3.4807         0.002589   
    281. D(C  30,N  29,Cr  0,C   3)    179.9859         0.002589   
    282. D(C  30,N  29,Cr  0,N   1)   -176.5468         0.002589   
    283. D(C  35,C  30,N  28,Cr  0)   -174.4218         0.045658   
    284. D(N  29,C  30,N  28,C  31)   -178.1138         0.045658   
    285. D(N  29,C  30,N  28,Cr  0)      5.3473         0.045658   
    286. D(N  29,C  30,C   8,H  11)    -36.2728         0.001500   
    287. D(N  29,C  30,C   8,H  10)     63.0729         0.001500   
    288. D(N  29,C  30,C   8,H   9)   -152.5708         0.001500   
    289. D(N  28,C  30,C   8,H  10)   -121.3867         0.001500   
    290. D(N  28,C  30,C   8,H   9)     22.9695         0.001500   
    291. D(N  29,C  30,C   3,N   2)    179.9623         0.001500   
    292. D(N  29,C  30,C   3,N   1)      5.8586         0.001500   
    293. D(N  28,C  30,C   3,N   2)     -5.9259         0.001500   
    294. D(N  28,C  30,C   8,H  11)    139.2676         0.001500   
    295. D(N  28,C  30,C   3,N   1)    179.9704         0.001500   
    296. D(N  29,C  30,Cr  0,N  28)   -174.1069         0.001569   
    297. D(N  29,C  30,Cr  0,N   2)    179.9791         0.001569   
    298. D(Cr  0,C  30,N  28,C  31)    176.5389         0.045658   
    299. D(N  29,C  30,Cr  0,N   1)      5.8465         0.001569   
    300. D(N  28,C  30,Cr  0,N  29)    174.1069         0.001569   
    301. D(N  28,C  30,Cr  0,N   2)     -5.9140         0.001569   
    302. D(C  35,C  30,N  28,C  31)      2.1170         0.045658   
    303. D(N  28,C  30,Cr  0,N   1)    179.9533         0.001569   
    304. D(C  35,C  30,N  29,C  33)     -2.1564         0.045573   
    305. D(C  35,C  30,N  29,Cr  0)    174.4188         0.045573   
    306. D(N  28,C  30,N  29,C  33)    178.0737         0.045573   
    307. D(N  28,C  30,N  29,Cr  0)     -5.3510         0.045573   
    308. D(Cr  0,C  30,N  29,C  33)   -176.5753         0.045573   
    309. D(C  47,C  31,N  28,C  30)    -97.7874         0.017654   
    310. D(C  47,C  31,N  28,Cr  0)     75.9129         0.017654   
    311. D(C  43,C  31,N  28,C  30)    137.1394         0.017654   
    312. D(C  43,C  31,N  28,Cr  0)    -49.1604         0.017654   
    313. D(H  32,C  31,N  28,C  30)     21.2429         0.017654   
    314. D(H  32,C  31,N  28,Cr  0)   -165.0568         0.017654   
    315. D(C  51,C  33,N  29,C  30)     98.3106         0.017655   
    316. D(C  51,C  33,N  29,Cr  0)    -75.4348         0.017655   
    317. D(C  39,C  33,N  29,C  30)   -136.6448         0.017655   
    318. D(C  39,C  33,N  29,Cr  0)     49.6098         0.017655   
    319. D(H  34,C  33,N  29,C  30)    -20.0817         0.017655   
    320. D(H  34,C  33,N  29,Cr  0)    166.1729         0.017655   
    321. D(H  38,C  35,C  30,N  29)   -162.0544         0.013109   
    322. D(H  38,C  35,C  30,N  28)     17.6915         0.013109   
    323. D(H  37,C  35,C  30,N  28)   -122.6611         0.013109   
    324. D(H  36,C  35,C  30,N  29)    -39.1814         0.013109   
    325. D(H  36,C  35,C  30,N  28)    140.5644         0.013109   
    326. D(H  38,C  35,C   8,H  10)   -100.0879         0.001500   
    327. D(H  38,C  35,C   8,H   9)     43.9260         0.001500   
    328. D(H  37,C  35,C   8,H  11)     18.5742         0.001500   
    329. D(H  37,C  35,C   8,H   9)    -98.1214         0.001500   
    330. D(H  36,C  35,C   8,H  11)    -78.3738         0.001500   
    331. D(H  36,C  35,C   8,H  10)     20.9166         0.001500   
    332. D(H  36,C  35,C   8,H   9)    164.9306         0.001500   
    333. D(H  38,C  35,C   3,N   2)     16.9361         0.001500   
    334. D(H  38,C  35,C   3,N   1)   -158.5920         0.001500   
    335. D(H  37,C  35,C   3,N   2)   -125.5115         0.001500   
    336. D(H  37,C  35,C   3,N   1)     58.9604         0.001500   
    337. D(H  36,C  35,C   3,N   2)    137.5242         0.001500   
    338. D(H  36,C  35,C   3,N   1)    -38.0038         0.001500   
    339. D(H  38,C  35,Cr  0,N  29)   -166.7834         0.001500   
    340. D(H  38,C  35,Cr  0,N  28)     24.6631         0.001500   
    341. D(H  38,C  35,Cr  0,N   2)     13.1956         0.001500   
    342. D(H  37,C  35,C   8,H  10)    117.8646         0.001500   
    343. D(H  38,C  35,Cr  0,N   1)   -155.3834         0.001500   
    344. D(H  37,C  35,Cr  0,N  29)     51.1670         0.001500   
    345. D(H  37,C  35,Cr  0,N  28)   -117.3865         0.001500   
    346. D(H  38,C  35,C   8,H  11)    160.6217         0.001500   
    347. D(H  37,C  35,Cr  0,N   2)   -128.8539         0.001500   
    348. D(H  37,C  35,Cr  0,N   1)     62.5671         0.001500   
    349. D(H  36,C  35,Cr  0,N  29)    -45.7821         0.001500   
    350. D(H  37,C  35,C  30,N  29)     57.5931         0.013109   
    351. D(H  36,C  35,Cr  0,N  28)    145.6644         0.001500   
    352. D(H  36,C  35,Cr  0,N   2)    134.1969         0.001500   
    353. D(H  36,C  35,Cr  0,N   1)    -34.3821         0.001500   
    354. D(H  41,C  39,C  33,C  51)    -57.8653         0.011868   
    355. D(H  41,C  39,C  33,H  34)     58.7717         0.011868   
    356. D(H  41,C  39,C  33,N  29)    177.1781         0.011868   
    357. D(H  40,C  39,C  33,C  51)   -178.0492         0.011868   
    358. D(H  40,C  39,C  33,H  34)    -61.4121         0.011868   
    359. D(H  40,C  39,C  33,N  29)     56.9942         0.011868   
    360. D(H  45,C  43,C  31,C  47)     57.8309         0.011832   
    361. D(H  45,C  43,C  31,H  32)    -59.0151         0.011832   
    362. D(H  45,C  43,C  31,N  28)   -177.0681         0.011832   
    363. D(H  44,C  43,C  31,C  47)    -62.2328         0.011832   
    364. D(H  44,C  43,C  31,H  32)   -179.0788         0.011832   
    365. D(H  44,C  43,C  31,N  28)     62.8682         0.011832   
    366. D(H  49,C  47,C  31,C  43)    -54.3694         0.011617   
    367. D(H  49,C  47,C  31,H  32)     61.2663         0.011617   
    368. D(H  49,C  47,C  31,N  28)   -178.8167         0.011617   
    369. D(H  48,C  47,C  31,C  43)   -174.3861         0.011617   
    370. D(H  48,C  47,C  31,H  32)    -58.7504         0.011617   
    371. D(H  48,C  47,C  31,N  28)     61.1666         0.011617   
    372. D(H  53,C  51,C  33,C  39)     54.3556         0.011286   
    373. D(H  53,C  51,C  33,H  34)    -61.6639         0.011286   
    374. D(H  53,C  51,C  33,N  29)    178.7642         0.011286   
    375. D(H  52,C  51,C  33,C  39)    -66.0034         0.011286   
    376. D(H  52,C  51,C  33,H  34)    177.9771         0.011286   
    377. D(H  52,C  51,C  33,N  29)     58.4052         0.011286   
    -----------------------------------------------------------------

Number of atoms                         .... 55
Number of degrees of freedom            .... 377


         *************************************************************
         *                GEOMETRY OPTIMIZATION CYCLE   1            *
         *************************************************************
---------------------------------
CARTESIAN COORDINATES (ANGSTROEM)
---------------------------------
  Cr     2.083107    3.043213    4.608987
  N      3.307871    1.459522    5.164324
  N      2.258674    1.510723    3.219114
  C      3.135382    0.878903    3.985994
  C      4.193232    0.911754    6.168310
  H      4.361768   -0.150789    5.960119
  C      1.892016    1.016938    1.909922
  H      2.131154   -0.052845    1.848355
  C      3.863739   -0.368370    3.556484
  H      3.922889   -0.450904    2.473959
  H      3.559744   -1.283576    4.333668
  H      4.913208   -0.341762    3.938894
  C      0.387816    1.115525    1.702917
  H     -0.144377    0.572633    2.490018
  H      0.098223    0.694719    0.738438
  H      0.055167    2.152932    1.731210
  C      3.546873    0.976812    7.543551
  H      3.361565    2.009490    7.841656
  H      4.196586    0.517719    8.295141
  H      2.592523    0.449686    7.540941
  C      5.557080    1.599757    6.151392
  H      6.048411    1.475681    5.180044
  H      6.216902    1.200249    6.923295
  H      5.448274    2.671904    6.319649
  C      2.660733    1.726998    0.802484
  H      2.483098    2.805258    0.840912
  H      2.355344    1.355480   -0.183914
  H      3.732281    1.559789    0.912167
  N      0.859032    4.627399    4.053337
  N      1.907284    4.575444    5.999047
  C      1.031112    5.207677    5.231888
  C     -0.023509    5.176981    3.047749
  H     -0.180444    6.244484    3.249763
  C      2.270837    5.067273    7.309783
  H      2.020026    6.131777    7.378060
  C      0.303120    6.455145    5.661430
  H      0.018943    6.377148    6.728650
  H      1.169541    7.323872    5.952916
  H     -0.578186    6.650941    5.055773
  C      3.774137    4.970576    7.519646
  H      4.302839    5.518919    6.740095
  H      4.053092    5.389233    8.492075
  H      4.109534    3.933079    7.488706
  C      0.624599    5.108967    1.672997
  H      0.805861    4.076208    1.376149
  H     -0.015459    5.569320    0.917686
  H      1.586040    5.630448    1.675527
  C     -1.387608    4.497535    3.061641
  H     -1.878065    4.642256    4.024831
  H     -2.038241    4.909336    2.281405
  H     -1.283216    3.421773    2.896460
  C      1.497719    4.348030    8.414438
  H      1.680379    3.273692    8.374142
  H      1.786570    4.702708    9.404036
  H      0.417702    4.494039    8.298460

----------------------------
CARTESIAN COORDINATES (A.U.)
----------------------------
  NO LB      ZA    FRAG     MASS         X           Y           Z
   0 Cr   24.0000    0    52.000    3.936502    5.750839    8.709723
   1 N     7.0000    0    14.007    6.250970    2.758098    9.759158
   2 N     7.0000    0    14.007    4.268274    2.854853    6.083243
   3 C     6.0000    0    12.011    5.925013    1.660885    7.532437
   4 C     6.0000    0    12.011    7.924061    1.722965   11.656417
   5 H     1.0000    0     1.008    8.242548   -0.284950   11.262993
   6 C     6.0000    0    12.011    3.575392    1.921735    3.609230
   7 H     1.0000    0     1.008    4.027298   -0.099863    3.492885
   8 C     6.0000    0    12.011    7.301408   -0.696119    6.720781
   9 H     1.0000    0     1.008    7.413187   -0.852085    4.675105
  10 H     1.0000    0     1.008    6.726942   -2.425607    8.189446
  11 H     1.0000    0     1.008    9.284617   -0.645837    7.443431
  12 C     6.0000    0    12.011    0.732866    2.108037    3.218046
  13 H     1.0000    0     1.008   -0.272832    1.082120    4.705452
  14 H     1.0000    0     1.008    0.185615    1.312828    1.395445
  15 H     1.0000    0     1.008    0.104251    4.068452    3.271513
  16 C     6.0000    0    12.011    6.702619    1.845908   14.255246
  17 H     1.0000    0     1.008    6.352437    3.797386   14.818583
  18 H     1.0000    0     1.008    7.930398    0.978347   15.675544
  19 H     1.0000    0     1.008    4.899159    0.849783   14.250313
  20 C     6.0000    0    12.011   10.501359    3.023102   11.624446
  21 H     1.0000    0     1.008   11.429840    2.788634    9.788864
  22 H     1.0000    0     1.008   11.748243    2.268141   13.083131
  23 H     1.0000    0     1.008   10.295746    5.049168   11.942405
  24 C     6.0000    0    12.011    5.028058    3.263552    1.516474
  25 H     1.0000    0     1.008    4.692374    5.301170    1.589094
  26 H     1.0000    0     1.008    4.450956    2.561486   -0.347547
  27 H     1.0000    0     1.008    7.052990    2.947574    1.723746
  28 N     7.0000    0    14.007    1.623335    8.744517    7.659697
  29 N     7.0000    0    14.007    3.604244    8.646336   11.336555
  30 C     6.0000    0    12.011    1.948520    9.841083    9.886836
  31 C     6.0000    0    12.011   -0.044426    9.783076    5.759412
  32 H     1.0000    0     1.008   -0.340990   11.800364    6.141162
  33 C     6.0000    0    12.011    4.291259    9.575759   13.813489
  34 H     1.0000    0     1.008    3.817295   11.587380   13.942513
  35 C     6.0000    0    12.011    0.572813   12.198456   10.698551
  36 H     1.0000    0     1.008    0.035796   12.051064   12.715306
  37 H     1.0000    0     1.008    2.210112   13.840113   11.249381
  38 H     1.0000    0     1.008   -1.092613   12.568457    9.554026
  39 C     6.0000    0    12.011    7.132085    9.393027   14.210072
  40 H     1.0000    0     1.008    8.131187   10.429245   12.736933
  41 H     1.0000    0     1.008    7.659233   10.184174   16.047697
  42 H     1.0000    0     1.008    7.765893    7.432442   14.151604
  43 C     6.0000    0    12.011    1.180321    9.654549    3.161507
  44 H     1.0000    0     1.008    1.522856    7.702916    2.600545
  45 H     1.0000    0     1.008   -0.029213   10.524489    1.734175
  46 H     1.0000    0     1.008    2.997182   10.640005    3.166287
  47 C     6.0000    0    12.011   -2.622198    8.499110    5.785663
  48 H     1.0000    0     1.008   -3.549029    8.772593    7.605828
  49 H     1.0000    0     1.008   -3.851717    9.277300    4.311231
  50 H     1.0000    0     1.008   -2.424927    6.466215    5.473516
  51 C     6.0000    0    12.011    2.830279    8.216586   15.900984
  52 H     1.0000    0     1.008    3.175457    6.186381   15.824835
  53 H     1.0000    0     1.008    3.376129    8.886831   17.771052
  54 H     1.0000    0     1.008    0.789342    8.492503   15.681817

--------------------------------
INTERNAL COORDINATES (ANGSTROEM)
--------------------------------
 Cr     0   0   0     0.000000000000     0.00000000     0.00000000
 N      1   0   0     2.077623924029     0.00000000     0.00000000
 N      1   2   0     2.076318094872    64.30816445     0.00000000
 C      2   1   3     1.324889985823    91.12185748     3.48018416
 C      2   1   3     1.446341102051   146.62517122   177.94041533
 H      5   2   1     1.095785183939   109.23859698   165.95043667
 C      3   1   2     1.446459033471   146.76155824   181.58891027
 H      7   3   1     1.097913375760   109.15776677   194.77717155
 C      4   2   1     1.506874762139   123.59474036   174.41399852
 H      9   4   2     1.087277377037   111.89550214   204.13269520
 H      9   4   2     1.238558886091   108.30860345    61.60129607
 H      9   4   2     1.117287186964   109.67881904   322.64572458
 C      7   3   1     1.521573935777   110.58579243   310.67370077
 H     13   7   3     1.094298224729   110.53501996   303.33195406
 H     13   7   3     1.091403692218   110.95003914   183.07072970
 H     13   7   3     1.089802341851   111.09393601    62.91845570
 C      5   2   1     1.520954185516   110.56763465    49.45323069
 H     17   5   2     1.090701363556   111.08983175   297.19818347
 H     17   5   2     1.094431229478   110.53134884   177.22440572
 H     17   5   2     1.090253442321   110.43529810    57.06117744
 C      5   2   1     1.527649891726   111.60763237   284.43363686
 H     21   5   2     1.095589912395   111.05050576   299.73013392
 H     21   5   2     1.091240967728   111.53713701   178.78593919
 H     21   5   2     1.090710671089   110.60560494    58.41047633
 C      7   3   1     1.523657103909   111.76964035    75.78872488
 H     25   7   3     1.093470522635   110.61196221   301.78218402
 H     25   7   3     1.097391680798   110.80223046   181.19392248
 H     25   7   3     1.090047729891   110.56913781    61.25104147
 N      1   2   3     2.077680014876   179.97511986   264.73636928
 N      1   2   3     2.076273609384   115.68950767   179.98779928
 C     29   1  30     1.324883641251    91.11920161   356.51872915
 C     29   1  30     1.446417921653   146.62809827   181.85386831
 H     32  29   1     1.097725349945   109.19521300   194.94316326
 C     30   1   2     1.446408650202   146.75672363   358.14566596
 H     34  30   1     1.095781013485   109.22402936   166.17290947
 C     31  29   1     1.506869506754   123.60120631   185.57815142
 H     36  31  29     1.107158245040   109.90457921   140.56440734
 H     36  31  29     1.261085454892   107.71314579   237.33893012
 H     36  31  29     1.087131770444   112.45381402    17.69145402
 C     34  30   1     1.520955187665   110.60057180    49.60980775
 H     40  34  30     1.089911073173   110.41273301    56.99424320
 H     40  34  30     1.094855237754   110.49161658   177.17808225
 H     40  34  30     1.090801137386   111.12873210   297.16776900
 C     32  29   1     1.521385231602   110.56732787   310.83960689
 H     44  32  29     1.089755949019   111.06143771    62.86824782
 H     44  32  29     1.091830425435   110.88722408   182.93193216
 H     44  32  29     1.093763438088   110.55203587   303.20694325
 C     32  29   1     1.524009133757   111.74029540    75.91285008
 H     48  32  29     1.090516788802   110.57558911    61.16655082
 H     48  32  29     1.096207553005   110.93362823   181.18330321
 H     48  32  29     1.093364561119   110.59828899   301.73771585
 C     34  30   1     1.528163923381   111.58366474   284.56524066
 H     52  34  30     1.090500142773   110.62379630    58.40520314
 H     52  34  30     1.090199299623   111.65367062   178.76423366
 H     52  34  30     1.095995788210   111.05980713   299.73964248

---------------------------
INTERNAL COORDINATES (A.U.)
---------------------------
 Cr     0   0   0     0.000000000000     0.00000000     0.00000000
 N      1   0   0     3.926140225698     0.00000000     0.00000000
 N      1   2   0     3.923672566213    64.30816445     0.00000000
 C      2   1   3     2.503679230780    91.12185748     3.48018416
 C      2   1   3     2.733188579111   146.62517122   177.94041533
 H      5   2   1     2.070733899253   109.23859698   165.95043667
 C      3   1   2     2.733411437197   146.76155824   181.58891027
 H      7   3   1     2.074755598956   109.15776677   194.77717155
 C      4   2   1     2.847580618560   123.59474036   174.41399852
 H      9   4   2     2.054656474209   111.89550214   204.13269520
 H      9   4   2     2.340537095446   108.30860345    61.60129607
 H      9   4   2     2.111366796302   109.67881904   322.64572458
 C      7   3   1     2.875358031132   110.58579243   310.67370077
 H     13   7   3     2.067923953574   110.53501996   303.33195406
 H     13   7   3     2.062454079842   110.95003914   183.07072970
 H     13   7   3     2.059427966204   111.09393601    62.91845570
 C      5   2   1     2.874186872866   110.56763465    49.45323069
 H     17   5   2     2.061126871015   111.08983175   297.19818347
 H     17   5   2     2.068175296124   110.53134884   177.22440572
 H     17   5   2     2.060280422551   110.43529810    57.06117744
 C      5   2   1     2.886839923877   111.60763237   284.43363686
 H     21   5   2     2.070364889513   111.05050576   299.73013392
 H     21   5   2     2.062146575122   111.53713701   178.78593919
 H     21   5   2     2.061144459703   110.60560494    58.41047633
 C      7   3   1     2.879294648392   111.76964035    75.78872488
 H     25   7   3     2.066359823297   110.61196221   301.78218402
 H     25   7   3     2.073769738352   110.80223046   181.19392248
 H     25   7   3     2.059891682396   110.56913781    61.25104147
 N      1   2   3     3.926246222036   179.97511986   264.73636928
 N      1   2   3     3.923588500824   115.68950767   179.98779928
 C     29   1  30     2.503667241277    91.11920161   356.51872915
 C     29   1  30     2.733333747120   146.62809827   181.85386831
 H     32  29   1     2.074400281658   109.19521300   194.94316326
 C     30   1   2     2.733316226616   146.75672363   358.14566596
 H     34  30   1     2.070726018236   109.22402936   166.17290947
 C     31  29   1     2.847570687321   123.60120631   185.57815142
 H     36  31  29     2.092225870038   109.90457921   140.56440734
 H     36  31  29     2.383106141217   107.71314579   237.33893012
 H     36  31  29     2.054381317625   112.45381402    17.69145402
 C     34  30   1     2.874188766655   110.60057180    49.60980775
 H     40  34  30     2.059633438624   110.41273301    56.99424320
 H     40  34  30     2.068976555644   110.49161658   177.17808225
 H     40  34  30     2.061315416229   111.12873210   297.16776900
 C     32  29   1     2.875001431920   110.56732787   310.83960689
 H     44  32  29     2.059340296458   111.06143771    62.86824782
 H     44  32  29     2.063260488755   110.88722408   182.93193216
 H     44  32  29     2.066913353282   110.55203587   303.20694325
 C     32  29   1     2.879959888394   111.74029540    75.91285008
 H     48  32  29     2.060778075279   110.57558911    61.16655082
 H     48  32  29     2.071532061115   110.93362823   181.18330321
 H     48  32  29     2.066159585049   110.59828899   301.73771585
 C     34  30   1     2.887811302929   111.58366474   284.56524066
 H     52  34  30     2.060746618842   110.62379630    58.40520314
 H     52  34  30     2.060178107681   111.65367062   178.76423366
 H     52  34  30     2.071131883647   111.05980713   299.73964248

---------------------
BASIS SET INFORMATION
---------------------
There are 4 groups of distinct atoms

 Group   1 Type Cr  : 17s11p7d1f contracted to 6s4p4d1f pattern {842111/6311/4111/1}
 Group   2 Type N   : 11s6p2d1f contracted to 5s3p2d1f pattern {62111/411/11/1}
 Group   3 Type C   : 11s6p2d1f contracted to 5s3p2d1f pattern {62111/411/11/1}
 Group   4 Type H   : 5s1p contracted to 3s1p pattern {311/1}

Atom   0Cr   basis set group =>   1
Atom   1N    basis set group =>   2
Atom   2N    basis set group =>   2
Atom   3C    basis set group =>   3
Atom   4C    basis set group =>   3
Atom   5H    basis set group =>   4
Atom   6C    basis set group =>   3
Atom   7H    basis set group =>   4
Atom   8C    basis set group =>   3
Atom   9H    basis set group =>   4
Atom  10H    basis set group =>   4
Atom  11H    basis set group =>   4
Atom  12C    basis set group =>   3
Atom  13H    basis set group =>   4
Atom  14H    basis set group =>   4
Atom  15H    basis set group =>   4
Atom  16C    basis set group =>   3
Atom  17H    basis set group =>   4
Atom  18H    basis set group =>   4
Atom  19H    basis set group =>   4
Atom  20C    basis set group =>   3
Atom  21H    basis set group =>   4
Atom  22H    basis set group =>   4
Atom  23H    basis set group =>   4
Atom  24C    basis set group =>   3
Atom  25H    basis set group =>   4
Atom  26H    basis set group =>   4
Atom  27H    basis set group =>   4
Atom  28N    basis set group =>   2
Atom  29N    basis set group =>   2
Atom  30C    basis set group =>   3
Atom  31C    basis set group =>   3
Atom  32H    basis set group =>   4
Atom  33C    basis set group =>   3
Atom  34H    basis set group =>   4
Atom  35C    basis set group =>   3
Atom  36H    basis set group =>   4
Atom  37H    basis set group =>   4
Atom  38H    basis set group =>   4
Atom  39C    basis set group =>   3
Atom  40H    basis set group =>   4
Atom  41H    basis set group =>   4
Atom  42H    basis set group =>   4
Atom  43C    basis set group =>   3
Atom  44H    basis set group =>   4
Atom  45H    basis set group =>   4
Atom  46H    basis set group =>   4
Atom  47C    basis set group =>   3
Atom  48H    basis set group =>   4
Atom  49H    basis set group =>   4
Atom  50H    basis set group =>   4
Atom  51C    basis set group =>   3
Atom  52H    basis set group =>   4
Atom  53H    basis set group =>   4
Atom  54H    basis set group =>   4
---------------------------------
AUXILIARY/J BASIS SET INFORMATION
---------------------------------
There are 4 groups of distinct atoms

 Group   1 Type Cr  : 19s5p5d3f3g contracted to 8s5p5d2f3g pattern {121111111/11111/11111/21/111}
 Group   2 Type N   : 12s5p4d2f1g contracted to 6s4p3d1f1g pattern {711111/2111/211/2/1}
 Group   3 Type C   : 12s5p4d2f1g contracted to 6s4p3d1f1g pattern {711111/2111/211/2/1}
 Group   4 Type H   : 5s2p1d contracted to 3s1p1d pattern {311/2/1}

Atom   0Cr   basis set group =>   1
Atom   1N    basis set group =>   2
Atom   2N    basis set group =>   2
Atom   3C    basis set group =>   3
Atom   4C    basis set group =>   3
Atom   5H    basis set group =>   4
Atom   6C    basis set group =>   3
Atom   7H    basis set group =>   4
Atom   8C    basis set group =>   3
Atom   9H    basis set group =>   4
Atom  10H    basis set group =>   4
Atom  11H    basis set group =>   4
Atom  12C    basis set group =>   3
Atom  13H    basis set group =>   4
Atom  14H    basis set group =>   4
Atom  15H    basis set group =>   4
Atom  16C    basis set group =>   3
Atom  17H    basis set group =>   4
Atom  18H    basis set group =>   4
Atom  19H    basis set group =>   4
Atom  20C    basis set group =>   3
Atom  21H    basis set group =>   4
Atom  22H    basis set group =>   4
Atom  23H    basis set group =>   4
Atom  24C    basis set group =>   3
Atom  25H    basis set group =>   4
Atom  26H    basis set group =>   4
Atom  27H    basis set group =>   4
Atom  28N    basis set group =>   2
Atom  29N    basis set group =>   2
Atom  30C    basis set group =>   3
Atom  31C    basis set group =>   3
Atom  32H    basis set group =>   4
Atom  33C    basis set group =>   3
Atom  34H    basis set group =>   4
Atom  35C    basis set group =>   3
Atom  36H    basis set group =>   4
Atom  37H    basis set group =>   4
Atom  38H    basis set group =>   4
Atom  39C    basis set group =>   3
Atom  40H    basis set group =>   4
Atom  41H    basis set group =>   4
Atom  42H    basis set group =>   4
Atom  43C    basis set group =>   3
Atom  44H    basis set group =>   4
Atom  45H    basis set group =>   4
Atom  46H    basis set group =>   4
Atom  47C    basis set group =>   3
Atom  48H    basis set group =>   4
Atom  49H    basis set group =>   4
Atom  50H    basis set group =>   4
Atom  51C    basis set group =>   3
Atom  52H    basis set group =>   4
Atom  53H    basis set group =>   4
Atom  54H    basis set group =>   4


           ************************************************************
           *        Program running with 16 parallel MPI-processes    *
           *              working on a common directory               *
           ************************************************************
------------------------------------------------------------------------------
                             ORCA STARTUP CALCULATIONS
                           -- RI-GTO INTEGRALS CHOSEN --
------------------------------------------------------------------------------
------------------------------------------------------------------------------
                   ___                                                        
                  /   \      - P O W E R E D   B Y -                         
                 /     \                                                     
                 |  |  |   _    _      __       _____    __    __             
                 |  |  |  | |  | |    /  \     |  _  \  |  |  /  |          
                  \  \/   | |  | |   /    \    | | | |  |  | /  /          
                 / \  \   | |__| |  /  /\  \   | |_| |  |  |/  /          
                |  |  |   |  __  | /  /__\  \  |    /   |      \           
                |  |  |   | |  | | |   __   |  |    \   |  |\   \          
                \     /   | |  | | |  |  |  |  | |\  \  |  | \   \       
                 \___/    |_|  |_| |__|  |__|  |_| \__\ |__|  \__/        
                                                                              
                      - O R C A' S   B I G   F R I E N D -                    
                                      &                                       
                       - I N T E G R A L  F E E D E R -                       
                                                                              
 v1 FN, 2020, v2 2021, v3 2022-2024                                           
------------------------------------------------------------------------------


----------------------
SHARK INTEGRAL PACKAGE
----------------------

Number of atoms                             ...     55
Number of basis functions                   ...    869
Number of shells                            ...    371
Maximum angular momentum                    ...      3
Integral batch strategy                     ... SHARK/LIBINT Hybrid
RI-J (if used) integral strategy            ... SPLIT-RIJ (Revised 2003 algorithm where possible)
Printlevel                                  ...      1
Contraction scheme used                     ... SEGMENTED contraction
Prescreening option                         ... SCHWARTZ
   Thresh                                   ... 1.000e-12
   Tcut                                     ... 1.000e-14
   Tpresel                                  ... 1.000e-14 
Coulomb Range Separation                    ... NOT USED
Exchange Range Separation                   ... NOT USED
Multipole approximations                    ... NOT USED
Finite Nucleus Model                        ... NOT USED
CABS basis                                  ... NOT available
Auxiliary Coulomb fitting basis             ... AVAILABLE
   # of basis functions in Aux-J            ...   1443
   # of shells in Aux-J                     ...    493
   Maximum angular momentum in Aux-J        ...      4
Auxiliary J/K fitting basis                 ... NOT available
Auxiliary Correlation fitting basis         ... NOT available
Auxiliary 'external' fitting basis          ... NOT available

Checking pre-screening integrals            ... done (  0.0 sec) Dimension = 371
Check shell pair data                       ... done (  0.0 sec)
Shell pair information
Shell pair cut-off parameter TPreSel        ...   1.0e-14
Total number of shell pairs                 ...     69006
Shell pairs after pre-screening             ...     51894
Total number of primitive shell pairs       ...    205721
Primitive shell pairs kept                  ...    103846
          la=0 lb=0:  16242 shell pairs
          la=1 lb=0:  15384 shell pairs
          la=1 lb=1:   3748 shell pairs
          la=2 lb=0:   6986 shell pairs
          la=2 lb=1:   3332 shell pairs
          la=2 lb=2:    794 shell pairs
          la=3 lb=0:   3033 shell pairs
          la=3 lb=1:   1497 shell pairs
          la=3 lb=2:    716 shell pairs
          la=3 lb=3:    162 shell pairs

Calculating one electron integrals          ... done (  0.0 sec)
done (  0.2 sec)
Calculating Nuclear repulsion               ... done (  0.0 sec) ENN=   2300.502514311305 Eh

Diagonalization of the overlap matrix:
Smallest eigenvalue                        ... 1.366e-04
Time for diagonalization                   ...    0.117 sec
Threshold for overlap eigenvalues          ... 1.000e-07
Number of eigenvalues below threshold      ... 0
Time for construction of square roots      ...    0.085 sec
Total time needed                          ...    0.222 sec

-------------------
DFT GRID GENERATION
-------------------

General Integration Accuracy     IntAcc      ... 4.959
Radial Grid Type                 RadialGrid  ... OptM3 with GC (2021)
Angular Grid (max. ang.)         AngularGrid ... 6 (Lebedev-590)
Angular grid pruning method      GridPruning ... 4 (adaptive)
Weight generation scheme         WeightScheme... mBecke (2022)
Basis function cutoff            BFCut       ... 1.0000e-12
Integration weight cutoff        WCut        ... 1.0000e-14
Partially contracted basis set               ... off
Rotationally invariant grid construction     ... off
Angular grids for H and He will be reduced by one unit
Core-polarized basis detected: some atoms will have their core
                               angular grid increased.

Total number of grid points                  ...   595841
Total number of batches                      ...     9338
Average number of points per batch           ...       63
Average number of grid points per atom       ...    10833

--------------------
COSX GRID GENERATION
--------------------

GRIDX 1
-------
General Integration Accuracy     IntAcc      ... 4.020
Radial Grid Type                 RadialGrid  ... OptM3 with GC (2021)
Angular Grid (max. ang.)         AngularGrid ... 2 (Lebedev-110)
Angular grid pruning method      GridPruning ... 4 (adaptive)
Weight generation scheme         WeightScheme... mBecke (2022)
Basis function cutoff            BFCut       ... 1.0000e-12
Integration weight cutoff        WCut        ... 1.0000e-14
Partially contracted basis set               ... on
Rotationally invariant grid construction     ... off
Angular grids for H and He will be reduced by one unit
Core-polarized basis detected: some atoms will have their core
                               angular grid increased.

Total number of grid points                  ...    64372
Total number of batches                      ...      527
Average number of points per batch           ...      122
Average number of grid points per atom       ...     1170
UseSFitting                                  ... on

GRIDX 2
-------
General Integration Accuracy     IntAcc      ... 4.338
Radial Grid Type                 RadialGrid  ... OptM3 with GC (2021)
Angular Grid (max. ang.)         AngularGrid ... 3 (Lebedev-194)
Angular grid pruning method      GridPruning ... 4 (adaptive)
Weight generation scheme         WeightScheme... mBecke (2022)
Basis function cutoff            BFCut       ... 1.0000e-12
Integration weight cutoff        WCut        ... 1.0000e-14
Partially contracted basis set               ... on
Rotationally invariant grid construction     ... off
Angular grids for H and He will be reduced by one unit
Core-polarized basis detected: some atoms will have their core
                               angular grid increased.

Total number of grid points                  ...   133533
Total number of batches                      ...     1070
Average number of points per batch           ...      124
Average number of grid points per atom       ...     2428
UseSFitting                                  ... on

GRIDX 3
-------
General Integration Accuracy     IntAcc      ... 4.871
Radial Grid Type                 RadialGrid  ... OptM3 with GC (2021)
Angular Grid (max. ang.)         AngularGrid ... 4 (Lebedev-302)
Angular grid pruning method      GridPruning ... 4 (adaptive)
Weight generation scheme         WeightScheme... mBecke (2022)
Basis function cutoff            BFCut       ... 1.0000e-12
Integration weight cutoff        WCut        ... 1.0000e-14
Partially contracted basis set               ... on
Rotationally invariant grid construction     ... off
Angular grids for H and He will be reduced by one unit
Core-polarized basis detected: some atoms will have their core
                               angular grid increased.

Total number of grid points                  ...   260623
Total number of batches                      ...     2067
Average number of points per batch           ...      126
Average number of grid points per atom       ...     4739
UseSFitting                                  ... on
Initializing property integral containers    ... done (  0.0 sec)

SHARK setup successfully completed in  10.0 seconds

Maximum memory used throughout the entire STARTUP-calculation: 196.8 MB


           ************************************************************
           *        Program running with 16 parallel MPI-processes    *
           *              working on a common directory               *
           ************************************************************
-------------------------------------------------------------------------------
                                 ORCA GUESS
                   Start orbitals & Density for SCF / CASSCF
-------------------------------------------------------------------------------

------------
SCF SETTINGS
------------
Hamiltonian:
 Density Functional     Method          .... DFT(GTOs)
 Exchange Functional    Exchange        .... PBE
   PBE kappa parameter   XKappa         ....  0.804000
   PBE mue parameter    XMuePBE         ....  0.219520
 Correlation Functional Correlation     .... PBE
   PBE beta parameter  CBetaPBE         ....  0.066725
 LDA part of GGA corr.  LDAOpt          .... PW91-LDA
 Gradients option       PostSCFGGA      .... off
 Hybrid DFT is turned on
   Fraction HF Exchange ScalHFX         ....  0.250000
   Scaling of DF-GGA-X  ScalDFX         ....  0.750000
   Scaling of DF-GGA-C  ScalDFC         ....  1.000000
   Scaling of DF-LDA-C  ScalLDAC        ....  1.000000
   Perturbative correction              ....  0.000000
   NL short-range parameter             ....  6.900000
 RI-approximation to the Coulomb term is turned on
   Number of AuxJ basis functions       .... 1443
   RIJ-COSX (HFX calculated with COS-X)).... on


General Settings:
 Integral files         IntName         .... OKIJUQ-S5
 Hartree-Fock type      HFTyp           .... UHF
 Total Charge           Charge          ....    0
 Multiplicity           Mult            ....    3
 Number of Electrons    NEL             ....  182
 Basis Dimension        Dim             ....  869
 Nuclear Repulsion      ENuc            ....   2300.5025143113 Eh

Convergence Acceleration:
 AO-DIIS                CNVDIIS         .... on
   Start iteration      DIISMaxIt       ....     0
   Startup error        DIISStart       ....  0.200000
   # of expansion vecs  DIISMaxEq       ....     5
   Bias factor          DIISBfac        ....   1.050
   Max. coefficient     DIISMaxC        ....  10.000
 MO-DIIS                CNVKDIIS        .... off
 Trust-Rad. Augm. Hess. CNVTRAH         .... auto
   Auto Start mean grad. ratio tolernc. ....  1.125000
   Auto Start start iteration           ....    50
   Auto Start num. interpolation iter.  ....    10
   Max. Number of Micro iterations      ....    24
   Max. Number of Macro iterations      .... Maxiter - #DIIS iter
   Number of Davidson start vectors     ....     2
   Converg. threshold    (grad. norm)   ....   2.000e-06
   Grad. Scal. Fac. for Micro threshold ....   0.100
   Minimum threshold for Micro iter.    ....   1.000e-02
   NR start threshold (gradient norm)   ....   1.000e-04
   Initial trust radius                 ....   0.400
   Minimum AH scaling param. (alpha)    ....   1.000
   Maximum AH scaling param. (alpha)    .... 1000.000
   Quad. conv. algorithm                .... NR
   White noise on init. David. guess    .... on
   Maximum white noise                  ....   0.010
   Pseudo random numbers                .... off
   Inactive MOs                         .... canonical
   Orbital update algorithm             .... Taylor
   Preconditioner                       .... Diag
   Full preconditioner red. dimension   ....   250
 SOSCF                  CNVSOSCF        .... on
   Start iteration      SOSCFMaxIt      ....   150
   Startup grad/error   SOSCFStart      ....  0.001000
   Hessian update       SOSCFHessUp     .... L-BFGS
 Level Shifting         CNVShift        .... on
   Level shift para.    LevelShift      ....    0.2500
   Turn off err/grad.   ShiftErr        ....    0.0000
 Zerner damping         CNVZerner       .... off
 Static damping         CNVDamp         .... on
   Fraction old density DampFac         ....    0.8500
   Max. Damping (<1)    DampMax         ....    0.9800
   Min. Damping (>=0)   DampMin         ....    0.0000
   Turn off err/grad.   DampErr         ....    0.0300

SCF Procedure:
 Maximum # iterations   MaxIter         ....   125
 SCF integral mode      SCFMode         .... Direct
   Integral package                     .... SHARK and LIBINT hybrid scheme
 Reset frequency        DirectResetFreq ....    20
 Integral Threshold     Thresh          ....  1.000e-12 Eh
 Primitive CutOff       TCut            ....  1.000e-14 Eh

Convergence Tolerance:
 Convergence Check Mode ConvCheckMode   .... Total+1el-Energy
 Convergence forced     ConvForced      .... 0
 Energy Change          TolE            ....  1.000e-09 Eh
 1-El. energy change                    ....  1.000e-06 Eh
 Orbital Gradient       TolG            ....  2.000e-06
 Orbital Rotation angle TolX            ....  2.000e-06
 DIIS Error             TolErr          ....  1.000e-08

------------------------------
INITIAL GUESS: MODEL POTENTIAL
------------------------------
Loading Hartree-Fock densities                     ... done
Calculating cut-offs                               ... done
Initializing the effective Hamiltonian             ... done
Setting up the integral package (SHARK)            ... done
done (   0.3 sec)
Making the grid                                    ... done (   0.3 sec)
Mapping shells                                     ... done
Starting the XC term evaluation                    ... done (   0.2 sec)
  promolecular density results
     # of electrons  =    181.975566539
     EX              =   -165.364527818
     EC              =     -6.271317605
     EX+EC           =   -171.635845424
Transforming the Hamiltonian                       ... done (   0.1 sec)
done (   0.1 sec)
Back transforming the eigenvectors                 ... done (   0.1 sec)
done
                      ------------------
                      INITIAL GUESS DONE (   1.3 sec)
                      ------------------
             **** ENERGY FILE WAS UPDATED (OKIJUQ-S5.en.tmp) ****
Finished Guess after   1.8 sec
Maximum memory used throughout the entire GUESS-calculation: 89.7 MB


           ************************************************************
           *        Program running with 16 parallel MPI-processes    *
           *              working on a common directory               *
           ************************************************************

-------------------------------------------------------------------------------------------
                                      ORCA LEAN-SCF
                              memory conserving SCF solver
-------------------------------------------------------------------------------------------

----------------------------------------D-I-I-S--------------------------------------------
Iteration    Energy (Eh)           Delta-E    RMSDP     MaxDP     DIISErr   Damp  Time(sec)
-------------------------------------------------------------------------------------------
               ***  Starting incremental Fock matrix formation  ***
[...]
144:   3066.60   0.000376    1.90  0.000038  (-0.003377  0.000899 -0.005108)
145:   3117.30   0.006210   31.38  0.000622  ( 0.012019 -0.000453  0.021841)
146:   3117.51   0.003140   15.87  0.000314  ( 0.014252  0.006984 -0.007899)
147:   3118.20   0.000173    0.88  0.000017  ( 0.002420 -0.000034  0.003387)
148:   3118.60   0.002482   12.54  0.000248  (-0.010256 -0.010410  0.005901)
149:   3122.66   0.003404   17.20  0.000340  (-0.014649  0.003309  0.010705)
150:   3123.10   0.019358   97.83  0.001934  (-0.021955  0.001148 -0.038092)
151:   3125.27   0.000345    1.74  0.000034  ( 0.000010  0.000783  0.005818)
152:   3125.41   0.002572   13.00  0.000257  ( 0.007854 -0.000455  0.013962)
153:   3126.28   0.002788   14.09  0.000278  ( 0.003224 -0.016222 -0.002191)
154:   3126.83   0.007654   38.68  0.000764  ( 0.023275 -0.008204 -0.012444)
155:   3127.66   0.009546   48.24  0.000952  (-0.010212  0.028295  0.006897)
156:   3128.12   0.009857   49.81  0.000983  ( 0.014986 -0.001349  0.027513)
157:   3129.35   0.000858    4.34  0.000086  (-0.007547 -0.004934 -0.002068)
158:   3129.39   0.000896    4.53  0.000089  (-0.003007 -0.005422  0.007136)
159:   3131.18   0.014492   73.23  0.001444  (-0.014385  0.034090  0.008674)
160:   3134.98   0.011491   58.07  0.001144  (-0.009615 -0.032163  0.004116)
161:   3136.01   0.000115    0.58  0.000011  ( 0.001356 -0.000562  0.003051)
162:   3138.85   0.000011    0.05  0.000001  (-0.000444 -0.000913 -0.000130)
163:   3174.44   0.001833    9.26  0.000180  (-0.003866 -0.010152 -0.007884)
164:   3174.52   0.003057   15.45  0.000300  (-0.007915  0.005757 -0.014307)

* The epsilon (eps) is given for a Dirac delta lineshape.
** The dipole moment derivative (T) already includes vibrational overlap.

The first frequency considered to be a vibration is 6
The total number of vibrations considered is 159


--------------------------
THERMOCHEMISTRY AT 298.15K
--------------------------

Temperature         ...   298.15 K
Pressure            ...     1.00 atm
Total Mass          ...   334.48 AMU
Quasi RRHO          ...     True
Cut-Off Frequency   ...     1.00 cm^-1

Throughout the following assumptions are being made:
  (1) The electronic state is orbitally nondegenerate
      but the spin degeneracy is treated
  (2) There are no thermally accessible electronically excited states
  (3) Hindered rotations indicated by low frequency modes are not
      treated as such but are treated as vibrations and this may
      cause some error
  (4) All equations used are the standard statistical mechanics
      equations for an ideal gas
  (5) All vibrations are strictly harmonic

freq.      26.12  E(vib)   ...       0.56 
freq.      34.41  E(vib)   ...       0.54 
freq.      50.19  E(vib)   ...       0.52 
freq.      54.31  E(vib)   ...       0.52 
freq.      57.32  E(vib)   ...       0.51 
freq.      63.73  E(vib)   ...       0.51 
freq.      78.31  E(vib)   ...       0.49 
freq.      83.76  E(vib)   ...       0.48 
freq.      84.22  E(vib)   ...       0.48 
freq.     101.70  E(vib)   ...       0.46 
freq.     111.33  E(vib)   ...       0.45 
freq.     113.93  E(vib)   ...       0.44 
freq.     119.16  E(vib)   ...       0.44 
freq.     138.70  E(vib)   ...       0.42 
freq.     143.33  E(vib)   ...       0.41 
freq.     149.79  E(vib)   ...       0.40 
freq.     153.73  E(vib)   ...       0.40 
freq.     177.54  E(vib)   ...       0.37 
freq.     211.22  E(vib)   ...       0.34 
freq.     217.22  E(vib)   ...       0.34 
freq.     220.78  E(vib)   ...       0.33 
freq.     220.89  E(vib)   ...       0.33 
freq.     228.58  E(vib)   ...       0.32 
freq.     232.58  E(vib)   ...       0.32 
freq.     241.21  E(vib)   ...       0.31 
freq.     257.67  E(vib)   ...       0.30 
freq.     259.50  E(vib)   ...       0.30 
freq.     273.31  E(vib)   ...       0.29 
freq.     273.64  E(vib)   ...       0.29 
freq.     287.77  E(vib)   ...       0.27 
freq.     293.56  E(vib)   ...       0.27 
freq.     298.27  E(vib)   ...       0.27 
freq.     376.98  E(vib)   ...       0.21 
freq.     383.88  E(vib)   ...       0.20 
freq.     396.07  E(vib)   ...       0.20 
freq.     406.18  E(vib)   ...       0.19 
freq.     414.97  E(vib)   ...       0.19 
freq.     440.47  E(vib)   ...       0.17 
freq.     444.27  E(vib)   ...       0.17 
freq.     459.88  E(vib)   ...       0.16 
freq.     462.96  E(vib)   ...       0.16 
freq.     463.26  E(vib)   ...       0.16 
freq.     470.22  E(vib)   ...       0.16 
freq.     554.74  E(vib)   ...       0.12 
freq.     558.54  E(vib)   ...       0.12 
freq.     572.75  E(vib)   ...       0.11 
freq.     578.47  E(vib)   ...       0.11 
freq.     626.44  E(vib)   ...       0.09 
freq.     630.08  E(vib)   ...       0.09 
freq.     828.06  E(vib)   ...       0.04 
freq.     830.41  E(vib)   ...       0.04 
freq.     845.94  E(vib)   ...       0.04 
freq.     847.71  E(vib)   ...       0.04 
freq.     900.75  E(vib)   ...       0.03 
freq.     900.96  E(vib)   ...       0.03 
freq.     918.96  E(vib)   ...       0.03 
freq.     919.88  E(vib)   ...       0.03 
freq.     920.61  E(vib)   ...       0.03 
freq.     924.28  E(vib)   ...       0.03 
freq.     946.48  E(vib)   ...       0.03 
freq.     946.54  E(vib)   ...       0.03 
freq.     951.60  E(vib)   ...       0.03 
freq.     951.67  E(vib)   ...       0.03 
freq.     954.88  E(vib)   ...       0.03 
freq.     955.93  E(vib)   ...       0.03 
freq.    1038.75  E(vib)   ...       0.02 
freq.    1039.10  E(vib)   ...       0.02 
freq.    1039.73  E(vib)   ...       0.02 
freq.    1039.79  E(vib)   ...       0.02 
freq.    1077.85  E(vib)   ...       0.02 
freq.    1080.63  E(vib)   ...       0.02 
freq.    1150.19  E(vib)   ...       0.01 
freq.    1150.50  E(vib)   ...       0.01 
freq.    1155.07  E(vib)   ...       0.01 
freq.    1155.67  E(vib)   ...       0.01 
freq.    1178.00  E(vib)   ...       0.01 
freq.    1179.51  E(vib)   ...       0.01 
freq.    1190.07  E(vib)   ...       0.01 
freq.    1191.47  E(vib)   ...       0.01 
freq.    1203.62  E(vib)   ...       0.01 
freq.    1205.59  E(vib)   ...       0.01 
freq.    1256.99  E(vib)   ...       0.01 
freq.    1264.30  E(vib)   ...       0.01 
freq.    1346.95  E(vib)   ...       0.01 
freq.    1348.75  E(vib)   ...       0.01 
freq.    1349.05  E(vib)   ...       0.01 
freq.    1350.01  E(vib)   ...       0.01 
freq.    1362.10  E(vib)   ...       0.01 
freq.    1367.01  E(vib)   ...       0.01 
freq.    1376.52  E(vib)   ...       0.01 
freq.    1381.23  E(vib)   ...       0.01 
freq.    1383.57  E(vib)   ...       0.00 
freq.    1384.43  E(vib)   ...       0.00 
freq.    1385.52  E(vib)   ...       0.00 
freq.    1385.85  E(vib)   ...       0.00 
freq.    1388.44  E(vib)   ...       0.00 
freq.    1391.07  E(vib)   ...       0.00 
freq.    1399.21  E(vib)   ...       0.00 
freq.    1402.43  E(vib)   ...       0.00 
freq.    1405.96  E(vib)   ...       0.00 
freq.    1406.64  E(vib)   ...       0.00 
freq.    1460.93  E(vib)   ...       0.00 
freq.    1462.82  E(vib)   ...       0.00 
freq.    1469.77  E(vib)   ...       0.00 
freq.    1470.69  E(vib)   ...       0.00 
freq.    1470.74  E(vib)   ...       0.00 
freq.    1471.04  E(vib)   ...       0.00 
freq.    1473.57  E(vib)   ...       0.00 
freq.    1474.32  E(vib)   ...       0.00 
freq.    1475.48  E(vib)   ...       0.00 
freq.    1477.70  E(vib)   ...       0.00 
freq.    1481.00  E(vib)   ...       0.00 
freq.    1481.96  E(vib)   ...       0.00 
freq.    1482.77  E(vib)   ...       0.00 
freq.    1484.62  E(vib)   ...       0.00 
freq.    1488.65  E(vib)   ...       0.00 
freq.    1488.88  E(vib)   ...       0.00 
freq.    1496.93  E(vib)   ...       0.00 
freq.    1498.07  E(vib)   ...       0.00 
freq.    1499.37  E(vib)   ...       0.00 
freq.    1500.66  E(vib)   ...       0.00 
freq.    1534.81  E(vib)   ...       0.00 
freq.    1535.82  E(vib)   ...       0.00 
freq.    1560.58  E(vib)   ...       0.00 
freq.    1579.46  E(vib)   ...       0.00 
freq.    2995.01  E(vib)   ...       0.00 
freq.    2995.29  E(vib)   ...       0.00 
freq.    3028.94  E(vib)   ...       0.00 
freq.    3029.27  E(vib)   ...       0.00 
freq.    3042.72  E(vib)   ...       0.00 
freq.    3042.91  E(vib)   ...       0.00 
freq.    3043.03  E(vib)   ...       0.00 
freq.    3043.48  E(vib)   ...       0.00 
freq.    3047.51  E(vib)   ...       0.00 
freq.    3049.02  E(vib)   ...       0.00 
freq.    3051.99  E(vib)   ...       0.00 
freq.    3053.40  E(vib)   ...       0.00 
freq.    3066.51  E(vib)   ...       0.00 
freq.    3066.60  E(vib)   ...       0.00 
freq.    3117.30  E(vib)   ...       0.00 
freq.    3117.51  E(vib)   ...       0.00 
freq.    3118.20  E(vib)   ...       0.00 
freq.    3118.60  E(vib)   ...       0.00 
freq.    3122.66  E(vib)   ...       0.00 
freq.    3123.10  E(vib)   ...       0.00 
freq.    3125.27  E(vib)   ...       0.00 
freq.    3125.41  E(vib)   ...       0.00 
freq.    3126.28  E(vib)   ...       0.00 
freq.    3126.83  E(vib)   ...       0.00 
freq.    3127.66  E(vib)   ...       0.00 
freq.    3128.12  E(vib)   ...       0.00 
freq.    3129.35  E(vib)   ...       0.00 
freq.    3129.39  E(vib)   ...       0.00 
freq.    3131.18  E(vib)   ...       0.00 
freq.    3134.98  E(vib)   ...       0.00 
freq.    3136.01  E(vib)   ...       0.00 
freq.    3138.85  E(vib)   ...       0.00 
freq.    3174.44  E(vib)   ...       0.00 
freq.    3174.52  E(vib)   ...       0.00 

------------
INNER ENERGY
------------

The inner energy is: U= E(el) + E(ZPE) + E(vib) + E(rot) + E(trans)
    E(el)   - is the total energy from the electronic structure calculation
              = E(kin-el) + E(nuc-el) + E(el-el) + E(nuc-nuc)
    E(ZPE)  - the the zero temperature vibrational energy from the frequency calculation
    E(vib)  - the the finite temperature correction to E(ZPE) due to population
              of excited vibrational states
    E(rot)  - is the rotational thermal energy
    E(trans)- is the translational thermal energy

Summary of contributions to the inner energy U:
Electronic energy                ...  -1892.78728744 Eh
Zero point energy                ...      0.48856715 Eh     306.58 kcal/mol
Thermal vibrational correction   ...      0.02583880 Eh      16.21 kcal/mol
Thermal rotational correction    ...      0.00141627 Eh       0.89 kcal/mol
Thermal translational correction ...      0.00141627 Eh       0.89 kcal/mol
-----------------------------------------------------------------------
Total thermal energy                  -1892.27004895 Eh


Summary of corrections to the electronic energy:
(perhaps to be used in another calculation)
Total thermal correction                  0.02867134 Eh      17.99 kcal/mol
Non-thermal (ZPE) correction              0.48856715 Eh     306.58 kcal/mol
-----------------------------------------------------------------------
Total correction                          0.51723849 Eh     324.57 kcal/mol


--------
ENTHALPY
--------

The enthalpy is H = U + kB*T
                kB is Boltzmann's constant
Total thermal energy              ...  -1892.27004895 Eh 
Thermal Enthalpy correction       ...      0.00094421 Eh       0.59 kcal/mol
-----------------------------------------------------------------------
Total Enthalpy                    ...  -1892.26910474 Eh


Note: Only C1 symmetry has been detected, increase convergence thresholds 
      if your molecule has a higher symmetry. Symmetry factor of 1.0 is   
      used for the rotational entropy correction. 
 

Note: Rotational entropy computed according to Herzberg 
Infrared and Raman Spectra, Chapter V,1, Van Nostrand Reinhold, 1945 
Point Group:  C1, Symmetry Number:   1  
Rotational constants in cm-1:     0.009254     0.008981     0.005316 

Vibrational entropy computed according to the QRRHO of S. Grimme
Chem.Eur.J. 2012 18 9955 using a reference frequency of 100.0 cm-1


-------
ENTROPY
-------

The entropy contributions are T*S = T*(S(el)+S(vib)+S(rot)+S(trans))
     S(el)   - electronic entropy
     S(vib)  - vibrational entropy
     S(rot)  - rotational entropy
     S(trans)- translational entropy
The entropies will be listed as multiplied by the temperature to get
units of energy

Electronic entropy                ...      0.00103729 Eh      0.65 kcal/mol
Vibrational entropy               ...      0.04658399 Eh     29.23 kcal/mol
Rotational entropy                ...      0.01641861 Eh     10.30 kcal/mol
Translational entropy             ...      0.02058124 Eh     12.91 kcal/mol
-----------------------------------------------------------------------
Final entropy term                ...      0.08462113 Eh     53.10 kcal/mol

In case the symmetry of your molecule has not been determined correctly
or in case you have a reason to use a different symmetry number we print 
out the resulting rotational entropy values for sn=1,12:

 non-linear molecules -----------------------------------
|  sn= 1 | S(rot)=       0.01641861 Eh     10.30 kcal/mol|
|  sn= 2 | S(rot)=       0.01576415 Eh      9.89 kcal/mol|
|  sn= 3 | S(rot)=       0.01538132 Eh      9.65 kcal/mol|
|  sn= 4 | S(rot)=       0.01510970 Eh      9.48 kcal/mol|
|  sn= 5 | S(rot)=       0.01489901 Eh      9.35 kcal/mol|
|  sn= 6 | S(rot)=       0.01472686 Eh      9.24 kcal/mol|
|  sn= 7 | S(rot)=       0.01458132 Eh      9.15 kcal/mol|
|  sn= 8 | S(rot)=       0.01445524 Eh      9.07 kcal/mol|
|  sn= 9 | S(rot)=       0.01434403 Eh      9.00 kcal/mol|
|  sn=10 | S(rot)=       0.01424455 Eh      8.94 kcal/mol|
|  sn=11 | S(rot)=       0.01415456 Eh      8.88 kcal/mol|
|  sn=12 | S(rot)=       0.01407241 Eh      8.83 kcal/mol|
 linear molecules ---------------------------------------
|  Dinfh | S(rot)=       0.01027047 Eh      6.44 kcal/mol|
|  Cinfv | S(rot)=       0.01092492 Eh      6.86 kcal/mol|
 --------------------------------------------------------


-------------------
GIBBS FREE ENERGY
-------------------

The Gibbs free energy is G = H - T*S

Total enthalpy                    ...  -1892.26910474 Eh 
Total entropy correction          ...     -0.08462113 Eh    -53.10 kcal/mol
-----------------------------------------------------------------------
Final Gibbs free energy         ...  -1892.35372588 Eh

For completeness - the Gibbs free energy minus the electronic energy
G-E(el)                           ...      0.43356157 Eh    272.06 kcal/mol


Maximum memory used throughout the entire PROP-calculation: 1319.9 MB

--------------------------------
SUGGESTED CITATIONS FOR THIS RUN
--------------------------------

Below you find a list of papers that are relevant to this ORCA run
We neither can nor want to force you to cite these papers, but we appreciate if you do
You receive ORCA, which is the product of decades of hard work by many enthusiastic individuals, for free
The only thing we kindly ask in return is that you cite our papers,
We deeply appreciate it, if you show your appreciation for ORCA by not just citing the generic ORCA reference.

Please note that relegating all ORCA citations to the supporting information does *not* help us.
SI sections are not indexed - citations you put there will not count into any citation statistics
But we need these citations in order to attract the funding resources that allow us to do what we are doing

Therefore, if you are a happy ORCA user, please consider citing a few of the papers listed below in the main body of your paper

In addition to the list printed below, the program has created the file OKIJUQ-S5.bibtex that contains the list in bibtex format
You can import this file easily into all common literature databanks and citation aid programs


List of essential papers. We consider these as the minimum necessary citations

  1. Neese,F.
     Software update: the ORCA program system, version 5.0
     WIRES Comput. Molec. Sci., 2022 12(1)e1606
     doi.org/10.1002/wcms.1606

List of papers to cite with high priority. The work reported in these papers was absolutely
necessary for this run to complete.
Our perspective: the developers of density functionals and basis sets usually get cited in chemistry papers
Good! But without the algorithms to do something with them, the functionals or basis sets would not do anything.
Hence, in our opinion, the algorithm design and method developments papers are equally worthy of getting cited

  1. Neese,F.
     An improvement of the resolution of the identity approximation for the formation of the Coulomb matrix
     J. Comp. Chem., 2003 24(14)1740-1747
     doi.org/10.1002/jcc.10318
  2. Neese,F.; Wennmohs,F.; Hansen,A.; Becker,U.
     Efficient, approximate and parallel Hartree-Fock and hybrid DFT calculations. A 'chain-of-spheres' algorithm for the Hartree-Fock exchange
     Chem. Phys., 2009 356(1-3)98-109
     doi.org/10.1016/j.chemphys.2008.10.036
  3. Bykov,D.; Petrenko,T.; Izsak,R.; Kossmann,S.; Becker,U.; Valeev,E.; Neese,F.
     Efficient implementation of the analytic second derivatives of Hartree-Fock and hybrid DFT energies: a detailed analysis of different approximations
     Molec. Phys., 2015 113 1961-1977
     doi.org/10.1080/00268976.2015.1025114
  4. Helmich-Paris,B.; de Souza,B.; Neese,F.; Izsák,R.
     An improved chain of spheres for exchange algorithm
     J. Chem. Phys., 2021 155 104109
     doi.org/doi: 10.1063/5.0058766.
  5. Helmich-Paris,B.
     A trust-region augmented Hessian implementation for restricted and unrestricted Hartree–Fock and Kohn–Sham methods
     J. Chem. Phys., 2021 154 164104
     doi.org/10.1063/5.0040798
  6. Neese,F.
     The SHARK Integral Generation and Digestion System
     J. Comp. Chem., 2022  1-16
     doi.org/10.1002/jcc.26942

List of suggested additional citations. These are papers that are important in the 'surrounding' of 
of this run, or papers that preceded the highly important papers. If you like your results we are grateful for a citation.

  1. Izsak,R.; Neese,F.
     An overlap fitted chain of spheres exchange method
     J. Chem. Phys., 2011 135 144105
     doi.org/10.1063/1.3646921
  2. Izsak,R.; Hansen,A.; Neese,F.
     The resolution of identity and chain of spheres approximations for the LPNO-CCSD singles Fock term
     Molec. Phys., 2012 110 2413-2417
     doi.org/10.1080/00268976.2012.687466
  3. Neese,F.
     The ORCA program system
     WIRES Comput. Molec. Sci., 2012 2(1)73-78
     doi.org/10.1002/wcms.81
  4. Izsak,R.; Neese,F.; Klopper,W.
     Robust fitting techniques in the chain of spheres approximation to the Fock exchange: The role of the complementary space
     J. Chem. Phys., 2013 139 
     doi.org/10.1063/1.4819264
  5. Neese,F.
     Software update: the ORCA program system, version 4.0
     WIRES Comput. Molec. Sci., 2018 8(1)1-6
     doi.org/10.1002/wcms.1327
  6. Neese,F.; Wennmohs,F.; Becker,U.; Riplinger,C.
     The ORCA quantum chemistry program package
     J. Chem. Phys., 2020 152 Art. No. L224108
     doi.org/10.1063/5.0004608

List of optional additional citations

  1. Neese,F.
     Approximate second-order SCF convergence for spin unrestricted wavefunctions
     Chem. Phys. Lett., 2000 325(1-3)93-98
     doi.org/10.1016/s0009-2614(00)00662-x

Timings for individual modules:

Sum of individual times          ...    36434.897 sec (= 607.248 min)
Startup calculation              ...      396.613 sec (=   6.610 min)   1.1 %
SCF iterations                   ...    12133.441 sec (= 202.224 min)  33.3 %
Property integrals               ...     7762.790 sec (= 129.380 min)  21.3 %
SCF Response                     ...    10249.941 sec (= 170.832 min)  28.1 %
Property calculations            ...     2647.702 sec (=  44.128 min)   7.3 %
SCF Gradient evaluation          ...     3242.751 sec (=  54.046 min)   8.9 %
Geometry relaxation              ...        1.658 sec (=   0.028 min)   0.0 %
                             ****ORCA TERMINATED NORMALLY****
TOTAL RUN TIME: 0 days 10 hours 8 minutes 10 seconds 562 msec
