
                                 *****************
                                 * O   R   C   A *
                                 *****************

                                            #,                                       
                                            ###                                      
                                            ####                                     
                                            #####                                    
                                            ######                                   
                                           ########,                                 
                                     ,,################,,,,,                         
                               ,,#################################,,                 
                          ,,##########################################,,             
                       ,#########################################, ''#####,          
                    ,#############################################,,   '####,        
                  ,##################################################,,,,####,       
                ,###########''''           ''''###############################       
              ,#####''   ,,,,##########,,,,          '''####'''          '####       
            ,##' ,,,,###########################,,,                        '##       
           ' ,,###''''                  '''############,,,                           
         ,,##''                                '''############,,,,        ,,,,,,###''
      ,#''                                            '''#######################'''  
     '                                                          ''''####''''         
             ,#######,   #######,   ,#######,      ##                                
            ,#'     '#,  ##    ##  ,#'     '#,    #''#        ,####,   ,####,        
            ##       ##  ##   ,#'  ##            #'  '#       #'       #'  '#        
            ##       ##  #######   ##           ,######,      #####,   #    #        
            '#,     ,#'  ##    ##  '#,     ,#' ,#      #,     #,   #   #,  ,#        
             '#######'   ##     ##  '#######'  #'      '#     '####' # '####'        



                #########################################################
                #                        -***-                          #
                #          Department of theory and spectroscopy        #
                #                                                       #
                #                      Frank Neese                      #
                #                                                       #
                #     Directorship, Architecture, Infrastructure        #
                #                    SHARK, DRIVERS                     #
                #        Core code/Algorithms in most modules           #
                #                                                       #
                #        Max Planck Institute fuer Kohlenforschung      #
                #                Kaiser Wilhelm Platz 1                 #
                #                 D-45470 Muelheim/Ruhr                 #
                #                      Germany                          #
                #                                                       #
                #                  All rights reserved                  #
                #                        -***-                          #
                #########################################################


                         Program Version 6.0.1  -  RELEASE   -


 With contributions from (in alphabetic order):
[Max-Planck-Institut fuer Kohlenforschung]                               
  Daniel Aravena         : Magnetic Suceptibility                        
  Michael Atanasov       : Ab Initio Ligand Field Theory (pilot matlab implementation)
  Alexander A. Auer      : GIAO ZORA, VPT2 properties, NMR spectrum      
  Ute Becker             : All parallelization in ORCA, NUMFREQ, NUMCALC 
  Giovanni Bistoni       : ED, misc. LED, open-shell LED, HFLD           
  Martin Brehm           : Molecular dynamics                            
  Dmytro Bykov           : pre 5.0 version of the SCF Hessian            
  Marcos Casanova-Páez   : Triplet and SCS-CIS(D). UHF-(DLPNO)-IP/EA/STEOM-CCSD. UHF-CVS-IP/STEOM-CCSD   
  Vijay G. Chilkuri      : MRCI spin determinant printing, contributions to CSF-ICE 
  Pauline Colinet        : FMM embedding                                 
  Dipayan Datta          : RHF DLPNO-CCSD density                        
  Achintya Kumar Dutta   : EOM-CC, STEOM-CC                              
  Nicolas Foglia         : Exact transition moments, OPA infrastructure, MCD improvements    
  Dmitry Ganyushin       : Spin-Orbit,Spin-Spin,Magnetic field MRCI      
  Miquel Garcia-Rates    : C-PCM and meta-GGA Hessian, CCSD/C-PCM, Gaussian charge scheme 
  Tiago L. C. Gouveia    : GS-ROHF, GS-ROCIS                             
  Yang Guo               : DLPNO-NEVPT2, F12-NEVPT2, CIM, IAO-localization        
  Andreas Hansen         : Spin unrestricted coupled pair/coupled cluster methods 
  Ingolf Harden          : AUTO-CI MPn and infrastructure                
  Benjamin Helmich-Paris : MC-RPA, TRAH-(SCF,CASSCF), AVAS, COSX integrals, SCF dyn. polar. 
  Lee Huntington         : MR-EOM, pCC                                   
  Robert Izsak           : Overlap fitted RIJCOSX, COSX-SCS-MP3, EOM     
  Riya Kayal             : Wick's Theorem for AUTO-CI, AUTO-CI UHF-CCSDT 
  Emily Kempfer          : AUTO-CI, RHF CISDT and CCSDT                  
  Christian Kollmar      : KDIIS, OOCD, Brueckner-CCSD(T), CCSD density, CASPT2, CASPT2-K, improved NEVPT2 
  Axel Koslowski         : Symmetry handling                             
  Simone Kossmann        : meta-GGA functionals, TD-DFT gradient, OOMP2, (MP2 Hessian; deprecated post 5.0) 
  Lucas Lang             : DCDCAS                                        
  Marvin Lechner         : AUTO-CI (C++ implementation), FIC-MRCC        
  Spencer Leger          : CASSCF response                               
  Dagmar Lenk            : GEPOL surface, SMD, ORCA-2-JSON               
  Dimitrios Liakos       : Extrapolation schemes; Compound Job, initial MDCI parallelization 
  Dimitrios Manganas     : Further ROCIS development; embedding schemes. LFT, Crystal Embedding 
  Dimitrios Pantazis     : SARC Basis sets                               
  Anastasios Papadopoulos: AUTO-CI, single reference methods and gradients 
  Taras Petrenko         : pre 6.0 DFT Hessian and TD-DFT gradient, (ASA, deprecated), ECA, 1-Electron XAS/XES, NRVS 
  Peter Pinski           : DLPNO-MP2, DLPNO-MP2 Gradient                 
  Christoph Reimann      : Effective Core Potentials                     
  Marius Retegan         : Local ZFS, SOC                                
  Christoph Riplinger    : Optimizer, TS searches, QM/MM, DLPNO-CCSD(T), (RO)-DLPNO pert. Triples 
  Michael Roemelt        : Original ROCIS implementation                 
  Masaaki Saitow         : Open-shell DLPNO-CCSD energy and density      
  Barbara Sandhoefer     : DKH picture change effects                    
  Kantharuban Sivalingam : CASSCF convergence/infrastructure, NEVPT2 and variants, FIC-MRCI 
  Bernardo de Souza      : ESD, SOC TD-DFT                               
  Georgi L. Stoychev     : AutoAux, RI-MP2 NMR, DLPNO-MP2 response, X2C  
  Van Anh Tran           : RI-MP2 g-tensors                              
  Willem Van den Heuvel  : Paramagnetic NMR                              
  Zikuan Wang            : NOTCH, Electric field optimization            
  Frank Wennmohs         : Technical directorship and infrastructure     
  Hang Xu                : AUTO-CI-Response properties                   
                                                                         
[FACCTs GmbH]                                                            
  Markus Bursch, Miquel Garcia-Rates, Christoph Riplinger, Bernardo de Souza, Georgi L. Stoychev 
                                                                 
  APM, Basis sets (HGBS, AHGBS, def-TZVP (Ac-Lr), def2-XVPD (La-Lu)), CI-OPT, improved COSX, DLPNO-Multilevel,           
  DOCKER, DRACO, updates on ESD, GOAT, IRC, LR-CPCM, MBIS, meta-GGA TD-DFT gradient, ML-optimized integration grids, 
  MM, NACMEs, nearIR, NEB, NEB-TS, NL-DFT gradient (VV10), 2- and 3-layer-ONIOM, interface openCOSMO-RS, QMMM,   
  Crystal-QMMM, SF, symmetry and pop. for TD-DFT, r2SCAN hybrids, SOLVATOR                                   
                                                                         
[Other institutions]                                                     
  V. Asgeirsson          : NEB                                           
  Christoph Bannwarth    : sTDA-DFT, sTD-DFT, PBEh-3c, B97-3c, D3        
  Sebastian Ehlert       : rSCAN, r2SCAN, r2SCAN-3c, D4, dhf basis sets  
  Marvin Friede          : D4 for Fr, Ra, Ac-Lr                          
  Lars Goerigk           : TD-DFT with DH, B97 family of functionals     
  Stefan Grimme          : VdW corrections, initial TS optimization, DFT functionals, gCP, sTDA/sTD-DF 
  Waldemar Hujo          : DFT-NL                                        
  H. Jonsson             : NEB                                           
  Holger Kruse           : gCP                                           
  Marcel Mueller         : wB97X-3c, vDZP basis set                      
  Hagen Neugebauer       : wr2SCAN                                       
  Tobias Risthaus        : range-separated hybrid DFT                    
  Lukas Wittmann         : regularized MP2, r2SCAN double-hybrids, wr2SCAN        
                                                                         
We gratefully acknowledge several colleagues who have allowed us to      
interface, adapt or use parts of their codes:                            
  Ed Valeev, F. Pavosevic, A. Kumar             : LibInt (2-el integral package), F12 methods 
  Garnet Chan, S. Sharma, J. Yang, R. Olivares  : DMRG                   
  Ulf Ekstrom                                   : XCFun DFT Library      
  Mihaly Kallay                                 : mrcc  (arbitrary order and MRCC methods)
  Frank Weinhold                                : gennbo (NPA and NBO analysis)           
  Simon Mueller                                 : openCOSMO-RS                            
  Christopher J. Cramer and Donald G. Truhlar   : smd solvation model                     
  S Lehtola, MJT Oliveira, MAL Marques          : LibXC Library                           
  Liviu Ungur et al                             : ANISO software                          


 Your calculation uses the libint2 library for the computation of 2-el integrals
 For citations please refer to: http://libint.valeyev.net

 Your ORCA version has been built with support for libXC version: 6.2.2
 For citations please refer to: https://libxc.gitlab.io

 This ORCA versions uses:
   CBLAS   interface :  Fast vector & matrix operations
   LAPACKE interface :  Fast linear algebra routines
   SCALAPACK package :  Parallel linear algebra routines
   Shared memory     :  Shared parallel matrices
   BLAS/LAPACK       :  OpenBLAS 0.3.27  USE64BITINT DYNAMIC_ARCH NO_AFFINITY Cooperlake SINGLE_THREADED
        Core in use  :  Cooperlake
   Copyright (c) 2011-2014, The OpenBLAS Project


NOTE: MaxCore=3600 MB was set to SCF,MP2,MDCI,CIPSI,MRCI and CIS
      => If you want to overwrite this, your respective input block should be placed after the MaxCore statement
Warning: RI is on but no J-basis has been assigned. Assigning Def2/J (nothing to worry about!)
================================================================================

----- Orbital basis set information -----
Your calculation utilizes the basis: def2-TZVP
   F. Weigend and R. Ahlrichs, Phys. Chem. Chem. Phys. 7, 3297 (2005).

----- AuxJ basis set information -----
Your calculation utilizes the auxiliary basis: def2/J
   F. Weigend, Phys. Chem. Chem. Phys. 8, 1057 (2006).

================================================================================
                                        WARNINGS
                       Please study these warnings very carefully!
================================================================================


WARNING: your system is open-shell and RHF/RKS was chosen
  ===> : WILL SWITCH to UHF/UKS


WARNING: Geometry Optimization
  ===> : Switching off AutoStart
         For restart on a previous wavefunction, please use MOREAD

================================================================================
                                       INPUT FILE
================================================================================
NAME = OWUTIL02-S3.inp
|  1> ! PBE0 def2-TZVP  Opt Freq DEFGRID3
|  2> 
|  3> %maxcore 3600
|  4> 
|  5> %pal
|  6>     nprocs 16
|  7> end
|  8> 
|  9> *xyz 0 3
| 10> Cr 9.314 12.4522 1.4323
| 11> Cl 11.4043 11.3535 1.0347
| 12> C 7.4574 11.278 0.9728
| 13> C 7.1294 12.4397 1.7598
| 14> C 7.7393 12.2802 3.0339
| 15> C 8.4913 11.0737 3.0213
| 16> C 8.2818 10.4581 1.7523
| 17> C 7.003 11.0126 -0.4381
| 18> H 7.5479 10.2985 -0.8272
| 19> H 7.1018 11.8275 -0.9715
| 20> H 6.0618 10.738 -0.4318
| 21> C 6.2457 13.5564 1.274
| 22> H 5.3101 13.2664 1.2979
| 23> H 6.4918 13.7929 0.3552
| 24> H 6.3599 14.3392 1.854
| 25> C 7.6091 13.2115 4.21
| 26> H 7.1825 14.0462 3.9201
| 27> H 8.4989 13.4083 4.5703
| 28> H 7.0617 12.7888 4.9029
| 29> C 9.2856 10.4999 4.1523
| 30> H 9.5316 11.2156 4.7749
| 31> H 10.0985 10.0788 3.7996
| 32> H 8.7479 9.8285 4.6217
| 33> C 8.8196 9.0976 1.3908
| 34> H 8.3419 8.4109 1.9029
| 35> H 9.7751 9.0579 1.6029
| 36> H 8.6907 8.9389 0.4331
| 37> O 9.1673 13.3003 -0.2876
| 38> O 10.1427 13.8745 2.4031
| 39> N 9.8066 16.6726 -1.2128
| 40> H 10.147 17.4795 -1.1284
| 41> N 11.1865 17.0713 1.2548
| 42> H 11.2314 17.7557 0.7029
| 43> C 9.9244 15.6405 -0.2578
| 44> C 10.5677 15.8523 0.9678
| 45> C 9.2413 14.4937 -0.7914
| 46> C 8.6748 14.8908 -2.0661
| 47> C 9.0759 16.2292 -2.3021
| 48> C 10.6548 15.04 2.1693
| 49> C 11.3939 15.8179 3.133
| 50> C 11.7158 17.0468 2.523
| 51> C 7.8809 14.2267 -3.0213
| 52> H 7.6138 13.3244 -2.8895
| 53> C 7.4962 14.9221 -4.1585
| 54> H 6.9495 14.4933 -4.8075
| 55> C 7.903 16.2451 -4.3657
| 56> H 7.6202 16.6983 -5.1514
| 57> C 8.7089 16.9151 -3.4531
| 58> H 8.9969 17.8061 -3.6088
| 59> C 11.837 15.5411 4.4347
| 60> H 11.619 14.7206 4.8602
| 61> C 12.5995 16.4959 5.0836
| 62> H 12.9192 16.3213 5.961
| 63> C 12.9112 17.7319 4.4585
| 64> H 13.4385 18.3722 4.9217
| 65> C 12.4611 18.0135 3.1908
| 66> H 12.6542 18.8483 2.7803
| 67> *
| 68> 
| 69>                          ****END OF INPUT****
================================================================================

                       *****************************
                       * Geometry Optimization Run *
                       *****************************

Geometry optimization settings:
Update method            Update   .... BFGS
Choice of coordinates    CoordSys .... (2022) Redundant Internals
Initial Hessian          InHess   .... Almloef's Model
Max. no of cycles        MaxIter  .... 171

Convergence Tolerances:
Energy Change            TolE     ....  5.0000e-06 Eh
Max. Gradient            TolMAXG  ....  3.0000e-04 Eh/bohr
RMS Gradient             TolRMSG  ....  1.0000e-04 Eh/bohr
Max. Displacement        TolMAXD  ....  4.0000e-03 bohr
RMS Displacement         TolRMSD  ....  2.0000e-03 bohr
Strict Convergence                .... False

------------------------------------------------------------------------------
                        ORCA OPTIMIZATION COORDINATE SETUP
------------------------------------------------------------------------------

The optimization will be done in redundant internal coordinates (2022)
Making redundant internal coordinates   ...  (2022 redundants) done
Evaluating the initial hessian          ...  (Almloef) done
Evaluating the coordinates              ...  done
Calculating the B-matrix                .... done
Calculating the G-matrix                .... done
Diagonalizing the G-matrix              .... done
Small eigenvalue found = 8.217e-03
Small eigenvalue found = 8.743e-03
Small eigenvalue found = 1.052e-02
Small eigenvalue found = 2.179e-02
The first mode is                       ....  257
The number of degrees of freedom        ....  165

    -----------------------------------------------------------------
                    Redundant Internal Coordinates


    -----------------------------------------------------------------
         Definition                    Initial Value    Approx d2E/dq
    -----------------------------------------------------------------
      1. B(Cl  1,Cr  0)                  2.3947         0.353938   
      2. B(C   2,Cr  0)                  2.2443         0.274090   
      3. B(C   3,Cr  0)                  2.2090         0.311979   
      4. B(C   3,C   2)                  1.4410         0.518037   
      5. B(C   4,C   3)                  1.4215         0.556460   
      6. B(C   4,Cr  0)                  2.2526         0.265813   
      7. B(C   5,Cr  0)                  2.2588         0.259899   
      8. B(C   5,C   4)                  1.4217         0.556060   
      9. B(C   6,C   5)                  1.4259         0.547582   
     10. B(C   6,C   2)                  1.3998         0.602662   
     11. B(C   6,Cr  0)                  2.2681         0.251138   
     12. B(C   7,C   2)                  1.5058         0.408247   
     13. B(H   8,C   7)                  0.9789         0.541588   
     14. B(H   9,C   7)                  0.9789         0.541501   
     15. B(H  10,C   7)                  0.9805         0.538501   
     16. B(C  11,C   3)                  1.5046         0.410049   
     17. B(H  12,C  11)                  0.9798         0.539798   
     18. B(H  13,C  11)                  0.9801         0.539119   
     19. B(H  14,C  11)                  0.9809         0.537579   
     20. B(C  15,C   4)                  1.5058         0.408283   
     21. B(H  16,C  15)                  0.9812         0.537040   
     22. B(H  17,C  15)                  0.9799         0.539523   
     23. B(H  18,C  15)                  0.9790         0.541407   
     24. B(C  19,C   5)                  1.4964         0.422598   
     25. B(H  20,C  19)                  0.9800         0.539440   
     26. B(H  21,C  19)                  0.9811         0.537266   
     27. B(H  22,C  19)                  0.9799         0.539579   
     28. B(C  23,C   6)                  1.5069         0.406599   
     29. B(H  24,C  23)                  0.9808         0.537797   
     30. B(H  25,C  23)                  0.9796         0.540280   
     31. B(H  26,C  23)                  0.9793         0.540840   
     32. B(O  27,Cr  0)                  1.9232         0.798455   
     33. B(O  28,Cr  0)                  1.9111         0.835005   
     34. B(H  30,N  29)                  0.8798         0.698054   
     35. B(H  32,N  31)                  0.8803         0.696700   
     36. B(C  33,N  29)                  1.4111         0.517907   
     37. B(C  34,C  33)                  1.4003         0.601637   
     38. B(C  34,N  31)                  1.3969         0.545653   
     39. B(C  35,C  33)                  1.4375         0.524687   
     40. B(C  35,O  27)                  1.2975         0.786069   
     41. B(C  36,C  35)                  1.4503         0.500586   
     42. B(C  37,C  36)                  1.4170         0.565796   
     43. B(C  37,N  29)                  1.3846         0.570822   
     44. B(C  38,C  34)                  1.4529         0.495827   
     45. B(C  38,O  28)                  1.2943         0.795253   
     46. B(C  39,C  38)                  1.4423         0.515657   
     47. B(C  40,C  39)                  1.4092         0.582192   
     48. B(C  40,N  31)                  1.3744         0.592513   
     49. B(C  41,C  36)                  1.4084         0.583866   
     50. B(H  42,C  41)                  0.9502         0.601842   
     51. B(C  43,C  41)                  1.3874         0.630859   
     52. B(H  44,C  43)                  0.9508         0.600573   
     53. B(C  45,C  43)                  1.3996         0.603251   
     54. B(H  46,C  45)                  0.9501         0.602038   
     55. B(C  47,C  45)                  1.3897         0.625529   
     56. B(C  47,C  37)                  1.3892         0.626576   
     57. B(H  48,C  47)                  0.9492         0.603931   
     58. B(C  49,C  39)                  1.4026         0.596463   
     59. B(H  50,C  49)                  0.9496         0.603082   
     60. B(C  51,C  49)                  1.3835         0.639854   
     61. B(H  52,C  51)                  0.9500         0.602232   
     62. B(C  53,C  51)                  1.4197         0.560174   
     63. B(H  54,C  53)                  0.9500         0.602163   
     64. B(C  55,C  53)                  1.3744         0.661669   
     65. B(C  55,C  40)                  1.3914         0.621637   
     66. B(H  56,C  55)                  0.9501         0.602040   
     67. A(C   5,Cr  0,O  27)          150.5103         0.486992   
     68. A(C   2,Cr  0,C   5)           61.5381         0.403277   
     69. A(O  27,Cr  0,O  28)           99.1584         0.604303   
     70. A(Cl  1,Cr  0,C   6)           90.9908         0.433102   
     71. A(C   3,Cr  0,O  28)          110.9612         0.508013   
     72. A(C   5,Cr  0,C   6)           36.7195         0.397117   
     73. A(C   5,Cr  0,O  28)          104.7608         0.491045   
     74. A(Cl  1,Cr  0,O  28)           92.7108         0.537999   
     75. A(C   2,Cr  0,C   6)           36.1397         0.400847   
     76. A(C   4,Cr  0,C   6)           60.9499         0.398691   
     77. A(Cl  1,Cr  0,O  27)           96.9166         0.533473   
     78. A(C   3,Cr  0,C   6)           61.5788         0.410122   
     79. A(C   6,Cr  0,O  28)          141.2618         0.487937   
     80. A(Cl  1,Cr  0,C   3)          152.2817         0.450419   
     81. A(Cl  1,Cr  0,C   4)          133.8843         0.437553   
     82. A(Cl  1,Cr  0,C   2)          116.6193         0.439981   
     83. A(C   4,Cr  0,O  27)          128.0367         0.489024   
     84. A(C   4,Cr  0,C   5)           36.7383         0.401103   
     85. A(C   2,Cr  0,C   3)           37.7485         0.416541   
     86. A(C   3,Cr  0,C   4)           37.1413         0.414276   
     87. A(C   2,Cr  0,O  27)           89.1130         0.491810   
     88. A(C   2,Cr  0,O  28)          148.4429         0.495912   
     89. A(C   4,Cr  0,O  28)           89.9302         0.493097   
     90. A(C   3,Cr  0,O  27)           93.4192         0.503790   
     91. A(C   6,Cr  0,O  27)          118.6305         0.483916   
     92. A(C   2,Cr  0,C   4)           61.7923         0.404882   
     93. A(Cl  1,Cr  0,C   5)           98.9009         0.435783   
     94. A(C   3,Cr  0,C   5)           62.0992         0.412624   
     95. A(Cr  0,C   2,C   6)           72.8565         0.418179   
     96. A(Cr  0,C   2,C   7)          122.2541         0.390403   
     97. A(C   3,C   2,C   7)          125.8109         0.390417   
     98. A(Cr  0,C   2,C   3)           69.7996         0.407097   
     99. A(C   6,C   2,C   7)          126.6006         0.400918   
    100. A(C   3,C   2,C   6)          107.5848         0.418195   
    101. A(C   4,C   3,C  11)          128.6558         0.395643   
    102. A(Cr  0,C   3,C   2)           72.4519         0.416557   
    103. A(C   2,C   3,C   4)          107.5411         0.412305   
    104. A(C   2,C   3,C  11)          123.7568         0.390718   
    105. A(Cr  0,C   3,C  11)          121.9211         0.399676   
    106. A(Cr  0,C   3,C   4)           73.0951         0.421904   
    107. A(C   5,C   4,C  15)          125.2748         0.395294   
    108. A(C   3,C   4,C  15)          126.4089         0.395344   
    109. A(Cr  0,C   4,C   3)           69.7636         0.410054   
    110. A(C   3,C   4,C   5)          108.3132         0.417530   
    111. A(Cr  0,C   4,C  15)          124.6477         0.388324   
    112. A(Cr  0,C   4,C   5)           71.8651         0.410002   
    113. A(C   4,C   5,C  19)          126.8308         0.397692   
    114. A(Cr  0,C   5,C  19)          124.9158         0.389135   
    115. A(C   4,C   5,C   6)          107.2501         0.416336   
    116. A(Cr  0,C   5,C   6)           71.9962         0.407262   
    117. A(Cr  0,C   5,C   4)           71.3966         0.408371   
    118. A(C   6,C   5,C  19)          125.8080         0.396621   
    119. A(C   2,C   6,C   5)          109.2226         0.422353   
    120. A(Cr  0,C   6,C   5)           71.2843         0.404802   
    121. A(Cr  0,C   6,C   2)           71.0038         0.411727   
    122. A(C   5,C   6,C  23)          123.4239         0.393946   
    123. A(C   2,C   6,C  23)          127.2573         0.400633   
    124. A(Cr  0,C   6,C  23)          126.6908         0.384225   
    125. A(H   9,C   7,H  10)          109.4828         0.331473   
    126. A(H   8,C   7,H  10)          109.4265         0.331482   
    127. A(C   2,C   7,H  10)          109.4520         0.351988   
    128. A(H   8,C   7,H   9)          109.5414         0.331787   
    129. A(C   2,C   7,H   9)          109.4723         0.352319   
    130. A(C   2,C   7,H   8)          109.4524         0.352329   
    131. A(H  13,C  11,H  14)          109.4196         0.331137   
    132. A(H  12,C  11,H  14)          109.4474         0.331206   
    133. A(C   3,C  11,H  14)          109.4502         0.352148   
    134. A(H  12,C  11,H  13)          109.5141         0.331363   
    135. A(C   3,C  11,H  13)          109.5282         0.352319   
    136. A(C   3,C  11,H  12)          109.4678         0.352394   
    137. A(H  17,C  15,H  18)          109.5235         0.331567   
    138. A(H  16,C  15,H  18)          109.4701         0.331314   
    139. A(C   4,C  15,H  18)          109.5180         0.352314   
    140. A(H  16,C  15,H  17)          109.4247         0.331123   
    141. A(C   4,C  15,H  17)          109.4426         0.352106   
    142. A(C   4,C  15,H  16)          109.4484         0.351832   
    143. A(H  20,C  19,H  21)          109.5038         0.331138   
    144. A(C   5,C  19,H  21)          109.4312         0.353915   
    145. A(C   5,C  19,H  20)          109.4737         0.354157   
    146. A(H  21,C  19,H  22)          109.4375         0.331152   
    147. A(H  20,C  19,H  22)          109.4994         0.331373   
    148. A(C   5,C  19,H  22)          109.4817         0.354173   
    149. A(H  25,C  23,H  26)          109.4862         0.331587   
    150. A(H  24,C  23,H  26)          109.4534         0.331334   
    151. A(C   6,C  23,H  26)          109.5079         0.352006   
    152. A(H  24,C  23,H  25)          109.4906         0.331277   
    153. A(C   6,C  23,H  25)          109.4366         0.351944   
    154. A(C   6,C  23,H  24)          109.4526         0.351670   
    155. A(Cr  0,O  27,C  35)          138.4589         0.528059   
    156. A(Cr  0,O  28,C  38)          138.5882         0.533697   
    157. A(C  33,N  29,C  37)          110.0155         0.408828   
    158. A(H  30,N  29,C  37)          124.9839         0.383928   
    159. A(H  30,N  29,C  33)          125.0006         0.377505   
    160. A(C  34,N  31,C  40)          110.1585         0.415371   
    161. A(H  32,N  31,C  40)          124.9365         0.386297   
    162. A(H  32,N  31,C  34)          124.9049         0.380805   
    163. A(C  34,C  33,C  35)          131.5946         0.419019   
    164. A(N  29,C  33,C  35)          107.0144         0.405388   
    165. A(N  29,C  33,C  34)          121.3377         0.415342   
    166. A(C  33,C  34,C  38)          131.8178         0.414820   
    167. A(N  31,C  34,C  38)          106.9433         0.405074   
    168. A(N  31,C  34,C  33)          121.0200         0.419219   
    169. A(C  33,C  35,C  36)          107.0631         0.405567   
    170. A(O  27,C  35,C  36)          124.8075         0.433043   
    171. A(O  27,C  35,C  33)          128.0774         0.436724   
    172. A(C  37,C  36,C  41)          119.4695         0.422432   
    173. A(C  35,C  36,C  41)          133.4039         0.413317   
    174. A(C  35,C  36,C  37)          107.1232         0.411018   
    175. A(C  36,C  37,C  47)          121.9752         0.427802   
    176. A(N  29,C  37,C  47)          129.2810         0.425688   
    177. A(N  29,C  37,C  36)          108.7130         0.418001   
    178. A(C  34,C  38,C  39)          106.3636         0.403644   
    179. A(O  28,C  38,C  39)          124.5922         0.436272   
    180. A(O  28,C  38,C  34)          128.9825         0.433203   
    181. A(C  38,C  39,C  40)          107.3477         0.415290   
    182. A(C  40,C  39,C  49)          120.1088         0.426220   
    183. A(C  38,C  39,C  49)          132.4972         0.417083   
    184. A(N  31,C  40,C  39)          109.0856         0.422942   
    185. A(C  39,C  40,C  55)          121.3642         0.429390   
    186. A(N  31,C  40,C  55)          129.5501         0.427934   
    187. A(H  42,C  41,C  43)          120.7788         0.386610   
    188. A(C  36,C  41,C  43)          118.4155         0.430748   
    189. A(C  36,C  41,H  42)          120.8056         0.381441   
    190. A(H  44,C  43,C  45)          119.4994         0.383470   
    191. A(C  41,C  43,C  45)          120.9689         0.433284   
    192. A(C  41,C  43,H  44)          119.5316         0.386468   
    193. A(H  46,C  45,C  47)          119.0587         0.386061   
    194. A(C  43,C  45,C  47)          121.8092         0.432624   
    195. A(C  43,C  45,H  46)          119.1321         0.383633   
    196. A(C  37,C  47,H  48)          121.2773         0.386385   
    197. A(C  37,C  47,C  45)          117.3386         0.435587   
    198. A(C  45,C  47,H  48)          121.3841         0.386272   
    199. A(H  50,C  49,C  51)          120.8404         0.387704   
    200. A(C  39,C  49,C  51)          118.2413         0.433506   
    201. A(C  39,C  49,H  50)          120.9183         0.382994   
    202. A(H  52,C  51,C  53)          119.5225         0.378754   
    203. A(C  49,C  51,C  53)          121.0182         0.428646   
    204. A(C  49,C  51,H  52)          119.4593         0.387609   
    205. A(H  54,C  53,C  55)          119.5633         0.389876   
    206. A(C  51,C  53,C  55)          120.8368         0.431233   
    207. A(C  51,C  53,H  54)          119.5999         0.378747   
    208. A(C  53,C  55,H  56)          120.7962         0.389862   
    209. A(C  40,C  55,H  56)          120.7946         0.385642   
    210. A(C  40,C  55,C  53)          118.4092         0.439393   
    211. D(C   3,C   2,Cr  0,O  27)    -96.7438         0.001923   
    212. D(C   3,C   2,Cr  0,C   5)     80.2535         0.001923   
    213. D(C   3,C   2,Cr  0,C   4)     38.2954         0.001923   
    214. D(C   6,C   2,Cr  0,C   5)    -36.5148         0.001923   
    215. D(C   6,C   2,Cr  0,C   4)    -78.4728         0.001923   
    216. D(C   6,C   2,Cr  0,C   3)   -116.7683         0.001923   
    217. D(C   3,C   2,Cr  0,O  28)      9.4541         0.001923   
    218. D(C   3,C   2,Cr  0,Cl  1)    165.9623         0.001923   
    219. D(C   3,C   2,Cr  0,C   6)    116.7683         0.001923   
    220. D(C   6,C   2,Cr  0,Cl  1)     49.1940         0.001923   
    221. D(C   2,C   3,Cr  0,Cl  1)    -27.7891         0.002045   
    222. D(C   4,C   3,C   2,C   7)    178.9894         0.021292   
    223. D(C  11,C   3,C   2,Cr  0)    117.1078         0.021292   
    224. D(C   4,C   3,Cr  0,C   6)     78.4664         0.002045   
    225. D(C   2,C   3,Cr  0,C   5)    -78.6399         0.002045   
    226. D(C   2,C   3,Cr  0,C   4)   -115.2444         0.002045   
    227. D(C   2,C   3,Cr  0,O  27)     84.1168         0.002045   
    228. D(Cr  0,C   3,C   2,C   6)     63.5069         0.021292   
    229. D(C   4,C   3,C   2,C   6)     -1.6710         0.021292   
    230. D(Cr  0,C   3,C   2,C   7)   -115.8327         0.021292   
    231. D(C   2,C   3,Cr  0,O  28)   -174.7181         0.002045   
    232. D(C   2,C   3,Cr  0,C   6)    -36.7780         0.002045   
    233. D(C   4,C   3,Cr  0,C   2)    115.2444         0.002045   
    234. D(C   4,C   3,Cr  0,Cl  1)     87.4553         0.002045   
    235. D(C   4,C   3,C   2,Cr  0)    -65.1779         0.021292   
    236. D(C   4,C   3,Cr  0,C   5)     36.6046         0.002045   
    237. D(C   3,C   4,Cr  0,C   6)    -80.3064         0.001898   
    238. D(C   3,C   4,Cr  0,C   2)    -38.9287         0.001898   
    239. D(C   3,C   4,Cr  0,C   5)   -118.2375         0.001898   
    240. D(C   3,C   4,Cr  0,O  27)     24.8453         0.001898   
    241. D(C  15,C   4,C   3,Cr  0)    118.7516         0.024711   
    242. D(C   5,C   4,C   3,C  11)   -179.5547         0.024711   
    243. D(C   5,C   4,C   3,C   2)      2.8789         0.024711   
    244. D(Cr  0,C   4,C   3,C  11)   -117.6827         0.024711   
    245. D(C   5,C   4,C   3,Cr  0)    -61.8720         0.024711   
    246. D(C   5,C   4,Cr  0,C   3)    118.2375         0.001898   
    247. D(C   5,C   4,Cr  0,Cl  1)    -21.6189         0.001898   
    248. D(C   5,C   4,Cr  0,C   2)     79.3088         0.001898   
    249. D(Cr  0,C   4,C   3,C   2)     64.7509         0.024711   
    250. D(C   3,C   4,Cr  0,O  28)    126.4484         0.001898   
    251. D(C   5,C   4,Cr  0,C   6)     37.9311         0.001898   
    252. D(C   3,C   4,Cr  0,Cl  1)   -139.8564         0.001898   
    253. D(C  19,C   5,C   4,Cr  0)    120.1609         0.024674   
    254. D(C   6,C   5,C   4,C  15)    176.4138         0.024674   
    255. D(C   6,C   5,C   4,C   3)     -2.9714         0.024674   
    256. D(C   6,C   5,C   4,Cr  0)    -63.5128         0.024674   
    257. D(Cr  0,C   5,C   4,C   3)     60.5414         0.024674   
    258. D(C   6,C   5,Cr  0,C   4)    116.0015         0.001881   
    259. D(C   6,C   5,Cr  0,C   3)     78.9959         0.001881   
    260. D(C   6,C   5,Cr  0,C   2)     35.9393         0.001881   
    261. D(C   6,C   5,Cr  0,Cl  1)    -79.5902         0.001881   
    262. D(C   4,C   5,Cr  0,O  28)     69.2005         0.001881   
    263. D(Cr  0,C   5,C   4,C  15)   -120.0734         0.024674   
    264. D(C   4,C   5,Cr  0,O  27)    -73.9545         0.001881   
    265. D(C   4,C   5,Cr  0,C   6)   -116.0015         0.001881   
    266. D(C   4,C   5,Cr  0,C   3)    -37.0056         0.001881   
    267. D(C   4,C   5,Cr  0,C   2)    -80.0622         0.001881   
    268. D(C   4,C   5,Cr  0,Cl  1)    164.4083         0.001881   
    269. D(C   2,C   6,Cr  0,O  27)    -38.9727         0.001857   
    270. D(C   2,C   6,Cr  0,C   5)    118.9648         0.001857   
    271. D(C   2,C   6,Cr  0,C   4)     81.0140         0.001857   
    272. D(C   2,C   6,Cr  0,C   3)     38.4256         0.001857   
    273. D(C   2,C   6,Cr  0,Cl  1)   -137.4062         0.001857   
    274. D(C  23,C   6,C   5,Cr  0)    122.1588         0.023893   
    275. D(C   2,C   6,C   5,C   4)      1.9408         0.023893   
    276. D(Cr  0,C   6,C   5,C  19)   -120.5075         0.023893   
    277. D(C   2,C   6,C   5,Cr  0)    -61.1774         0.023893   
    278. D(C   5,C   6,C   2,C   7)    179.1641         0.029247   
    279. D(C   5,C   6,C   2,C   3)     -0.1689         0.029247   
    280. D(C   5,C   6,C   2,Cr  0)     61.3521         0.029247   
    281. D(Cr  0,C   6,C   2,C   7)    117.8120         0.029247   
    282. D(Cr  0,C   6,C   2,C   3)    -61.5210         0.029247   
    283. D(C  23,C   6,C   2,Cr  0)   -122.1465         0.029247   
    284. D(Cr  0,C   6,C   5,C   4)     63.1182         0.023893   
    285. D(C   5,C   6,Cr  0,C   4)    -37.9508         0.001857   
    286. D(C   5,C   6,Cr  0,C   3)    -80.5391         0.001857   
    287. D(C   5,C   6,Cr  0,C   2)   -118.9648         0.001857   
    288. D(C   2,C   6,C   5,C  19)    178.3151         0.023893   
    289. D(C   5,C   6,Cr  0,Cl  1)    103.6290         0.001857   
    290. D(C   2,C   6,Cr  0,O  28)    127.0188         0.001857   
    291. D(H   9,C   7,C   2,C   6)   -134.7421         0.013206   
    292. D(H   9,C   7,C   2,C   3)     44.4738         0.013206   
    293. D(H   9,C   7,C   2,Cr  0)    -42.7644         0.013206   
    294. D(H   8,C   7,C   2,C   6)    -14.6671         0.013206   
    295. D(H   8,C   7,C   2,C   3)    164.5488         0.013206   
    296. D(H   8,C   7,C   2,Cr  0)     77.3106         0.013206   
    297. D(H  13,C  11,C   3,C   4)    138.4425         0.013319   
    298. D(H  13,C  11,C   3,C   2)    -44.3487         0.013319   
    299. D(H  13,C  11,C   3,Cr  0)     45.0264         0.013319   
    300. D(H  12,C  11,C   3,C   4)   -101.4721         0.013319   
    301. D(H  12,C  11,C   3,C   2)     75.7367         0.013319   
    302. D(H  12,C  11,C   3,Cr  0)    165.1118         0.013319   
    303. D(H  17,C  15,C   4,C   5)     49.6122         0.013208   
    304. D(H  17,C  15,C   4,C   3)   -131.1130         0.013208   
    305. D(H  17,C  15,C   4,Cr  0)    -41.8441         0.013208   
    306. D(H  16,C  15,C   4,C   5)    169.5238         0.013208   
    307. D(H  16,C  15,C   4,C   3)    -11.2014         0.013208   
    308. D(H  16,C  15,C   4,Cr  0)     78.0675         0.013208   
    309. D(H  21,C  19,C   5,C   6)     40.8912         0.014126   
    310. D(H  21,C  19,C   5,C   4)   -143.4361         0.014126   
    311. D(H  21,C  19,C   5,Cr  0)    -51.3321         0.014126   
    312. D(H  20,C  19,C   5,C   6)    160.9082         0.014126   
    313. D(H  20,C  19,C   5,C   4)    -23.4191         0.014126   
    314. D(H  20,C  19,C   5,Cr  0)     68.6848         0.014126   
    315. D(H  25,C  23,C   6,C   5)    -50.3882         0.013103   
    316. D(H  25,C  23,C   6,C   2)    133.5706         0.013103   
    317. D(H  25,C  23,C   6,Cr  0)     40.3177         0.013103   
    318. D(H  24,C  23,C   6,C   5)     69.6029         0.013103   
    319. D(H  24,C  23,C   6,C   2)   -106.4383         0.013103   
    320. D(H  24,C  23,C   6,Cr  0)    160.3088         0.013103   
    321. D(C  35,O  27,Cr  0,O  28)    -15.4136         0.005082   
    322. D(C  35,O  27,Cr  0,C   6)    155.7606         0.005082   
    323. D(C  35,O  27,Cr  0,C   5)    128.6172         0.005082   
    324. D(C  35,O  27,Cr  0,C   4)     81.7417         0.005082   
    325. D(C  35,O  27,Cr  0,C   3)     96.4646         0.005082   
    326. D(C  35,O  27,Cr  0,C   2)    133.9850         0.005082   
    327. D(C  35,O  27,Cr  0,Cl  1)   -109.3020         0.005082   
    328. D(C  38,O  28,Cr  0,O  27)     -7.2538         0.005424   
    329. D(C  38,O  28,Cr  0,C   6)   -174.8259         0.005424   
    330. D(C  38,O  28,Cr  0,C   5)   -169.8562         0.005424   
    331. D(C  38,O  28,Cr  0,C   4)   -135.8573         0.005424   
    332. D(C  38,O  28,Cr  0,C   3)   -104.5186         0.005424   
    333. D(C  38,O  28,Cr  0,C   2)   -110.7004         0.005424   
    334. D(C  38,O  28,Cr  0,Cl  1)     90.2012         0.005424   
    335. D(C  35,C  33,N  29,H  30)   -179.4386         0.021259   
    336. D(C  34,C  33,N  29,C  37)   -177.0424         0.021259   
    337. D(C  34,C  33,N  29,H  30)      2.9253         0.021259   
    338. D(C  35,C  33,N  29,C  37)      0.5937         0.021259   
    339. D(C  38,C  34,C  33,C  35)     -7.0032         0.024961   
    340. D(C  38,C  34,C  33,N  29)    169.9737         0.024961   
    341. D(N  31,C  34,C  33,C  35)    179.1264         0.024961   
    342. D(N  31,C  34,C  33,N  29)     -3.8967         0.024961   
    343. D(C  38,C  34,N  31,C  40)      3.2981         0.023711   
    344. D(C  38,C  34,N  31,H  32)   -176.7488         0.023711   
    345. D(C  33,C  34,N  31,C  40)    178.5262         0.023711   
    346. D(C  33,C  34,N  31,H  32)     -1.5207         0.023711   
    347. D(C  36,C  35,C  33,C  34)    175.2627         0.018782   
    348. D(C  36,C  35,C  33,N  29)     -2.0373         0.018782   
    349. D(O  27,C  35,C  33,C  34)     -7.2878         0.018782   
    350. D(O  27,C  35,C  33,N  29)    175.4123         0.018782   
    351. D(C  36,C  35,O  27,Cr  0)   -159.2732         0.047427   
    352. D(C  33,C  35,O  27,Cr  0)     23.6967         0.047427   
    353. D(C  41,C  36,C  35,C  33)   -177.9886         0.017069   
    354. D(C  41,C  36,C  35,O  27)      4.4566         0.017069   
    355. D(C  37,C  36,C  35,C  33)      2.7147         0.017069   
    356. D(C  37,C  36,C  35,O  27)   -174.8402         0.017069   
    357. D(C  47,C  37,C  36,C  41)      0.0447         0.021946   
    358. D(C  47,C  37,C  36,C  35)    179.4578         0.021946   
    359. D(N  29,C  37,C  36,C  41)    178.2002         0.021946   
    360. D(N  29,C  37,C  36,C  35)     -2.3866         0.021946   
    361. D(C  47,C  37,N  29,C  33)    179.1154         0.026082   
    362. D(C  47,C  37,N  29,H  30)     -0.8523         0.026082   
    363. D(C  36,C  37,N  29,C  33)      1.1368         0.026082   
    364. D(C  36,C  37,N  29,H  30)   -178.8309         0.026082   
    365. D(C  39,C  38,C  34,C  33)   -176.8396         0.016743   
    366. D(C  39,C  38,C  34,N  31)     -2.3289         0.016743   
    367. D(O  28,C  38,C  34,C  33)      0.3680         0.016743   
    368. D(O  28,C  38,C  34,N  31)    174.8788         0.016743   
    369. D(C  39,C  38,O  28,Cr  0)   -170.6464         0.048674   
    370. D(C  34,C  38,O  28,Cr  0)     12.6087         0.048674   
    371. D(C  49,C  39,C  38,C  34)   -176.8605         0.018128   
    372. D(C  49,C  39,C  38,O  28)      5.7761         0.018128   
    373. D(C  40,C  39,C  38,C  34)      0.5877         0.018128   
    374. D(C  40,C  39,C  38,O  28)   -176.7757         0.018128   
    375. D(C  55,C  40,C  39,C  49)     -0.6517         0.023295   
    376. D(C  55,C  40,C  39,C  38)   -178.4770         0.023295   
    377. D(N  31,C  40,C  39,C  49)    179.2428         0.023295   
    378. D(N  31,C  40,C  39,C  38)      1.4176         0.023295   
    379. D(C  55,C  40,N  31,C  34)    176.8976         0.028239   
    380. D(C  55,C  40,N  31,H  32)     -3.0554         0.028239   
    381. D(C  39,C  40,N  31,C  34)     -2.9856         0.028239   
    382. D(C  39,C  40,N  31,H  32)    177.0613         0.028239   
    383. D(C  43,C  41,C  36,C  37)     -1.1731         0.023436   
    384. D(C  43,C  41,C  36,C  35)    179.5989         0.023436   
    385. D(H  42,C  41,C  36,C  37)    178.9299         0.023436   
    386. D(H  42,C  41,C  36,C  35)     -0.2982         0.023436   
    387. D(C  45,C  43,C  41,H  42)   -179.0893         0.027599   
    388. D(C  45,C  43,C  41,C  36)      1.0136         0.027599   
    389. D(H  44,C  43,C  41,H  42)      0.7979         0.027599   
    390. D(H  44,C  43,C  41,C  36)   -179.0991         0.027599   
    391. D(C  47,C  45,C  43,H  44)   -179.5850         0.025102   
    392. D(C  47,C  45,C  43,C  41)      0.3023         0.025102   
    393. D(H  46,C  45,C  43,H  44)      0.4592         0.025102   
    394. D(H  46,C  45,C  43,C  41)   -179.6535         0.025102   
    395. D(H  48,C  47,C  45,H  46)     -1.4009         0.027106   
    396. D(H  48,C  47,C  45,C  43)    178.6432         0.027106   
    397. D(C  37,C  47,C  45,H  46)    178.5437         0.027106   
    398. D(C  37,C  47,C  45,C  43)     -1.4122         0.027106   
    399. D(H  48,C  47,C  37,C  36)   -178.8224         0.027202   
    400. D(H  48,C  47,C  37,N  29)      3.4347         0.027202   
    401. D(C  45,C  47,C  37,C  36)      1.2330         0.027202   
    402. D(C  45,C  47,C  37,N  29)   -176.5100         0.027202   
    403. D(C  51,C  49,C  39,C  40)     -0.5961         0.024510   
    404. D(C  51,C  49,C  39,C  38)    176.5881         0.024510   
    405. D(H  50,C  49,C  39,C  40)    179.3441         0.024510   
    406. D(H  50,C  49,C  39,C  38)     -3.4718         0.024510   
    407. D(C  53,C  51,C  49,H  50)   -179.0691         0.028445   
    408. D(C  53,C  51,C  49,C  39)      0.8710         0.028445   
    409. D(H  52,C  51,C  49,H  50)      0.9300         0.028445   
    410. D(H  52,C  51,C  49,C  39)   -179.1299         0.028445   
    411. D(C  55,C  53,C  51,H  52)   -179.9023         0.021495   
    412. D(C  55,C  53,C  51,C  49)      0.0968         0.021495   
    413. D(H  54,C  53,C  51,H  52)      0.1757         0.021495   
    414. D(H  54,C  53,C  51,C  49)   -179.8252         0.021495   
    415. D(H  56,C  55,C  53,H  54)     -1.4093         0.030561   
    416. D(H  56,C  55,C  53,C  51)    178.6688         0.030561   
    417. D(C  40,C  55,C  53,H  54)    178.5945         0.030561   
    418. D(C  40,C  55,C  53,C  51)     -1.3275         0.030561   
    419. D(H  56,C  55,C  40,C  39)   -178.3894         0.026749   
    420. D(H  56,C  55,C  40,N  31)      1.7398         0.026749   
    421. D(C  53,C  55,C  40,C  39)      1.6068         0.026749   
    422. D(C  53,C  55,C  40,N  31)   -178.2639         0.026749   
    -----------------------------------------------------------------

Number of atoms                         .... 57
Number of degrees of freedom            .... 422


         *************************************************************
         *                GEOMETRY OPTIMIZATION CYCLE   1            *
         *************************************************************
---------------------------------
CARTESIAN COORDINATES (ANGSTROEM)
---------------------------------
  Cr     9.314000   12.452200    1.432300
  Cl    11.404300   11.353500    1.034700
  C      7.457400   11.278000    0.972800
  C      7.129400   12.439700    1.759800
  C      7.739300   12.280200    3.033900
  C      8.491300   11.073700    3.021300
  C      8.281800   10.458100    1.752300
  C      7.003000   11.012600   -0.438100
  H      7.547900   10.298500   -0.827200
  H      7.101800   11.827500   -0.971500
  H      6.061800   10.738000   -0.431800
  C      6.245700   13.556400    1.274000
  H      5.310100   13.266400    1.297900
  H      6.491800   13.792900    0.355200
  H      6.359900   14.339200    1.854000
  C      7.609100   13.211500    4.210000
  H      7.182500   14.046200    3.920100
  H      8.498900   13.408300    4.570300
  H      7.061700   12.788800    4.902900
  C      9.285600   10.499900    4.152300
  H      9.531600   11.215600    4.774900
  H     10.098500   10.078800    3.799600
  H      8.747900    9.828500    4.621700
  C      8.819600    9.097600    1.390800
  H      8.341900    8.410900    1.902900
  H      9.775100    9.057900    1.602900
  H      8.690700    8.938900    0.433100
  O      9.167300   13.300300   -0.287600
  O     10.142700   13.874500    2.403100
  N      9.806600   16.672600   -1.212800
  H     10.147000   17.479500   -1.128400
  N     11.186500   17.071300    1.254800
  H     11.231400   17.755700    0.702900
  C      9.924400   15.640500   -0.257800
  C     10.567700   15.852300    0.967800
  C      9.241300   14.493700   -0.791400
  C      8.674800   14.890800   -2.066100
  C      9.075900   16.229200   -2.302100
  C     10.654800   15.040000    2.169300
  C     11.393900   15.817900    3.133000
  C     11.715800   17.046800    2.523000
  C      7.880900   14.226700   -3.021300
  H      7.613800   13.324400   -2.889500
  C      7.496200   14.922100   -4.158500
  H      6.949500   14.493300   -4.807500
  C      7.903000   16.245100   -4.365700
  H      7.620200   16.698300   -5.151400
  C      8.708900   16.915100   -3.453100
  H      8.996900   17.806100   -3.608800
  C     11.837000   15.541100    4.434700
  H     11.619000   14.720600    4.860200
  C     12.599500   16.495900    5.083600
  H     12.919200   16.321300    5.961000
  C     12.911200   17.731900    4.458500
  H     13.438500   18.372200    4.921700
  C     12.461100   18.013500    3.190800
  H     12.654200   18.848300    2.780300

----------------------------
CARTESIAN COORDINATES (A.U.)
----------------------------
  NO LB      ZA    FRAG     MASS         X           Y           Z
   0 Cr   24.0000    0    52.000   17.600909   23.531248    2.706655
   1 Cl   17.0000    0    35.453   21.551004   21.455006    1.955300
   2 C     6.0000    0    12.011   14.092444   21.312331    1.838326
   3 C     6.0000    0    12.011   13.472613   23.507626    3.325540
   4 C     6.0000    0    12.011   14.625157   23.206215    5.733240
   5 C     6.0000    0    12.011   16.046232   20.926260    5.709430
   6 C     6.0000    0    12.011   15.650334   19.762945    3.311367
   7 C     6.0000    0    12.011   13.233752   20.810798   -0.827889
   8 H     1.0000    0     1.008   14.263464   19.461345   -1.563181
   9 H     1.0000    0     1.008   13.420457   22.350736   -1.835869
  10 H     1.0000    0     1.008   11.455142   20.291879   -0.815984
  11 C     6.0000    0    12.011   11.802663   25.617883    2.407511
  12 H     1.0000    0     1.008   10.034635   25.069863    2.452676
  13 H     1.0000    0     1.008   12.267724   26.064804    0.671231
  14 H     1.0000    0     1.008   12.018469   27.097161    3.503552
  15 C     6.0000    0    12.011   14.379115   24.966117    7.955747
  16 H     1.0000    0     1.008   13.572958   26.543471    7.407915
  17 H     1.0000    0     1.008   16.060593   25.338015    8.636615
  18 H     1.0000    0     1.008   13.344679   24.167330    9.265138
  19 C     6.0000    0    12.011   17.547241   19.841935    7.846710
  20 H     1.0000    0     1.008   18.012114   21.194412    9.023253
  21 H     1.0000    0     1.008   19.083399   19.046172    7.180203
  22 H     1.0000    0     1.008   16.531135   18.573173    8.733747
  23 C     6.0000    0    12.011   16.666629   17.191972    2.628231
  24 H     1.0000    0     1.008   15.763906   15.894298    3.595960
  25 H     1.0000    0     1.008   18.472262   17.116950    3.029042
  26 H     1.0000    0     1.008   16.423043   16.892073    0.818440
  27 O     8.0000    0    15.999   17.323686   25.133924   -0.543485
  28 O     8.0000    0    15.999   19.166925   26.219005    4.541201
  29 N     7.0000    0    14.007   18.531788   31.506648   -2.291860
  30 H     1.0000    0     1.008   19.175051   33.031468   -2.132367
  31 N     7.0000    0    14.007   21.139421   32.260082    2.371228
  32 H     1.0000    0     1.008   21.224270   33.553410    1.328288
  33 C     6.0000    0    12.011   18.754398   29.556262   -0.487171
  34 C     6.0000    0    12.011   19.970059   29.956506    1.828877
  35 C     6.0000    0    12.011   17.463526   27.389124   -1.495529
  36 C     6.0000    0    12.011   16.392996   28.139534   -3.904363
  37 C     6.0000    0    12.011   17.150965   30.668743   -4.350339
  38 C     6.0000    0    12.011   20.134654   28.421481    4.099383
  39 C     6.0000    0    12.011   21.531351   29.891499    5.920512
  40 C     6.0000    0    12.011   22.139653   32.213783    4.767779
  41 C     6.0000    0    12.011   14.892743   26.884567   -5.709430
  42 H     1.0000    0     1.008   14.387997   25.179467   -5.460364
  43 C     6.0000    0    12.011   14.165765   28.198682   -7.858426
  44 H     1.0000    0     1.008   13.132652   27.388368   -9.084858
  45 C     6.0000    0    12.011   14.934506   30.698790   -8.249977
  46 H     1.0000    0     1.008   14.400091   31.555214   -9.734735
  47 C     6.0000    0    12.011   16.457436   31.964907   -6.525413
  48 H     1.0000    0     1.008   17.001677   33.648653   -6.819644
  49 C     6.0000    0    12.011   22.368688   29.368423    8.380368
  50 H     1.0000    0     1.008   21.956728   27.817903    9.184447
  51 C     6.0000    0    12.011   23.809604   31.172733    9.606612
  52 H     1.0000    0     1.008   24.413750   30.842787   11.264657
  53 C     6.0000    0    12.011   24.398632   33.508435    8.425344
  54 H     1.0000    0     1.008   25.395085   34.718426    9.300665
  55 C     6.0000    0    12.011   23.548066   34.040582    6.029738
  56 H     1.0000    0     1.008   23.912972   35.618125    5.254006

--------------------------------
INTERNAL COORDINATES (ANGSTROEM)
--------------------------------
 Cr     0   0   0     0.000000000000     0.00000000     0.00000000
 Cl     1   0   0     2.394698632396     0.00000000     0.00000000
 C      1   2   0     2.244292639118   116.61933783     0.00000000
 C      3   1   2     1.441006554461    69.79959388   165.96230529
 C      4   3   1     1.421530537836   107.54112586   294.82210358
 C      5   4   3     1.421726067145   108.31315837     2.87885671
 C      3   1   2     1.399818423939    72.85654719    49.19401734
 C      3   1   2     1.505840406550   122.25411317   286.29595396
 H      8   3   1     0.978904300736   109.45237640    77.31058335
 H      8   3   1     0.978947909748   109.47225568   317.23557270
 H      8   3   1     0.980460243967   109.45198154   197.23255331
 C      4   3   1     1.504641558644   123.75676750   117.10778893
 H     12   4   3     0.979805373531   109.46781872    75.73668562
 H     12   4   3     0.980148407130   109.52823454   315.65129283
 H     12   4   3     0.980926847425   109.45018672   195.69255049
 C      5   4   3     1.505816369947   126.40886632   183.50250748
 H     16   5   4     0.981200112108   109.44842098   348.79860949
 H     16   5   4     0.979944064730   109.44259108   228.88702061
 H     16   5   4     0.978995638397   109.51800688   108.81187192
 C      6   5   4     1.496435742022   126.83084720   180.70230296
 H     20   6   5     0.979986351946   109.47374320   336.58087157
 H     20   6   5     0.981085577307   109.43118860   216.56394078
 H     20   6   5     0.979916123962   109.48165520    96.62333023
 C      7   3   1     1.506941053923   127.25728000   237.85353777
 H     24   7   3     0.980816287589   109.45258351   253.56173704
 H     24   7   3     0.979562529908   109.43655741   133.57057342
 H     24   7   3     0.979280445021   109.50793801    13.55099687
 O      1   2   3     1.923239587259    96.91657306   267.51519865
 O      1   2   3     1.911055629750    92.71079675   167.94507077
 N     28   1   2     3.554870858414   129.59488709   258.05710808
 H     30  28   1     0.879819941806   156.15326389    19.41714890
 N     31  30  28     2.631887104342    95.59128909   355.08298625
 H     32  31  30     0.880348215197    48.07893736   174.97109760
 C     30  28   1     1.411074856271    31.24101858    13.12458796
 C     32  31  30     1.396869156364    76.95817497   359.11002966
 C     28   1   2     1.297495279375   138.45886951   250.69802919
 C     36  28   1     1.450334702750   124.80748365   200.72678924
 C     30  28   1     1.384593998254    78.81706101   196.12548853
 C     29   1   2     1.294333457808   138.58818741    90.20124827
 C     39  29   1     1.442260347510   124.59221493   189.35361751
 C     32  31  30     1.374441697563   172.04693005   205.13347193
 C     37  36  28     1.408443488394   133.40386367     4.45656665
 H     42  37  36     0.950188897009   120.80559568   359.70183713
 C     42  37  36     1.387371287724   118.41552548   179.59886416
 H     44  42  37     0.950763551047   119.53162287   180.90087799
 C     44  42  37     1.399552457038   120.96892675     1.01362504
 H     46  44  42     0.950100294706   119.13206130   180.34649476
 C     38  30  28     1.389225975139   129.28099489   180.77127309
 H     48  38  30     0.949245747949   121.27727303     3.43470307
 C     40  39  29     1.402632788723   132.49722251     5.77612832
 H     50  40  39     0.949628611616   120.91830732   356.52820236
 C     50  40  39     1.383517437548   118.24127744   176.58808551
 H     52  50  40     0.950012636758   119.45927206   180.87014842
 C     52  50  40     1.419719303243   121.01822754     0.87104087
 H     54  52  50     0.950044009507   119.59986152   180.17482727
 C     54  52  50     1.374391450788   120.83682518     0.09676231
 H     56  54  52     0.950099415851   120.79623466   178.66876850

---------------------------
INTERNAL COORDINATES (A.U.)
---------------------------
 Cr     0   0   0     0.000000000000     0.00000000     0.00000000
 Cl     1   0   0     4.525324588504     0.00000000     0.00000000
 C      1   2   0     4.241098452309   116.61933783     0.00000000
 C      3   1   2     2.723107745117    69.79959388   165.96230529
 C      4   3   1     2.686303407516   107.54112586   294.82210358
 C      5   4   3     2.686672904361   108.31315837     2.87885671
 C      3   1   2     2.645273458463    72.85654719    49.19401734
 C      3   1   2     2.845625969773   122.25411317   286.29595396
 H      8   3   1     1.849861039709   109.45237640    77.31058335
 H      8   3   1     1.849943448798   109.47225568   317.23557270
 H      8   3   1     1.852801346295   109.45198154   197.23255331
 C      4   3   1     2.843360475554   123.75676750   117.10778893
 H     12   4   3     1.851563820518   109.46781872    75.73668562
 H     12   4   3     1.852212060075   109.52823454   315.65129283
 H     12   4   3     1.853683099045   109.45018672   195.69255049
 C      5   4   3     2.845580547175   126.40886632   183.50250748
 H     16   5   4     1.854199494456   109.44842098   348.79860949
 H     16   5   4     1.851825908902   109.44259108   228.88702061
 H     16   5   4     1.850033642873   109.51800688   108.81187192
 C      6   5   4     2.827853729432   126.83084720   180.70230296
 H     20   6   5     1.851905820158   109.47374320   336.58087157
 H     20   6   5     1.853983055050   109.43118860   216.56394078
 H     20   6   5     1.851773108501   109.48165520    96.62333023
 C      7   3   1     2.847705891878   127.25728000   237.85353777
 H     24   7   3     1.853474171233   109.45258351   253.56173704
 H     24   7   3     1.851104912577   109.43655741   133.57057342
 H     24   7   3     1.850571849394   109.50793801    13.55099687
 O      1   2   3     3.634396109835    96.91657306   267.51519865
 O      1   2   3     3.611371766916    92.71079675   167.94507077
 N     28   1   2     6.717732363860   129.59488709   258.05710808
 H     30  28   1     1.662618737176   156.15326389    19.41714890
 N     31  30  28     4.973545842605    95.59128909   355.08298625
 H     32  31  30     1.663617029208    48.07893736   174.97109760
 C     30  28   1     2.666545032814    31.24101858    13.12458796
 C     32  31  30     2.639700150449    76.95817497   359.11002966
 C     28   1   2     2.451910738074   138.45886951   250.69802919
 C     36  28   1     2.740735390719   124.80748365   200.72678924
 C     30  28   1     2.616503463370    78.81706101   196.12548853
 C     29   1   2     2.445935761228   138.58818741    90.20124827
 C     39  29   1     2.725477070608   124.59221493   189.35361751
 C     32  31  30     2.597318395436   172.04693005   205.13347193
 C     37  36  28     2.661572468170   133.40386367     4.45656665
 H     42  37  36     1.795596790841   120.80559568   359.70183713
 C     42  37  36     2.621751779863   118.41552548   179.59886416
 H     44  42  37     1.796682729594   119.53162287   180.90087799
 C     44  42  37     2.644770853858   120.96892675     1.01362504
 H     46  44  42     1.795429356752   119.13206130   180.34649476
 C     38  30  28     2.625256631142   129.28099489   180.77127309
 H     48  38  30     1.793814497414   121.27727303     3.43470307
 C     40  39  29     2.650591837144   132.49722251     5.77612832
 H     50  40  39     1.794538004890   120.91830732   356.52820236
 C     50  40  39     2.614469058471   118.24127744   176.58808551
 H     52  50  40     1.795263707237   119.45927206   180.87014842
 C     52  50  40     2.682880670170   121.01822754     0.87104087
 H     54  52  50     1.795322993141   119.59986152   180.17482727
 C     54  52  50     2.597223442793   120.83682518     0.09676231
 H     56  54  52     1.795427695957   120.79623466   178.66876850

---------------------
BASIS SET INFORMATION
---------------------
There are 6 groups of distinct atoms

 Group   1 Type Cr  : 17s11p7d1f contracted to 6s4p4d1f pattern {842111/6311/4111/1}
 Group   2 Type Cl  : 14s9p3d1f contracted to 5s5p2d1f pattern {73211/51111/21/1}
 Group   3 Type C   : 11s6p2d1f contracted to 5s3p2d1f pattern {62111/411/11/1}
 Group   4 Type H   : 5s1p contracted to 3s1p pattern {311/1}
 Group   5 Type O   : 11s6p2d1f contracted to 5s3p2d1f pattern {62111/411/11/1}
 Group   6 Type N   : 11s6p2d1f contracted to 5s3p2d1f pattern {62111/411/11/1}

Atom   0Cr   basis set group =>   1
Atom   1Cl   basis set group =>   2
Atom   2C    basis set group =>   3
Atom   3C    basis set group =>   3
Atom   4C    basis set group =>   3
Atom   5C    basis set group =>   3
Atom   6C    basis set group =>   3
Atom   7C    basis set group =>   3
Atom   8H    basis set group =>   4
Atom   9H    basis set group =>   4
Atom  10H    basis set group =>   4
Atom  11C    basis set group =>   3
Atom  12H    basis set group =>   4
Atom  13H    basis set group =>   4
Atom  14H    basis set group =>   4
Atom  15C    basis set group =>   3
Atom  16H    basis set group =>   4
Atom  17H    basis set group =>   4
Atom  18H    basis set group =>   4
Atom  19C    basis set group =>   3
Atom  20H    basis set group =>   4
Atom  21H    basis set group =>   4
Atom  22H    basis set group =>   4
Atom  23C    basis set group =>   3
Atom  24H    basis set group =>   4
Atom  25H    basis set group =>   4
Atom  26H    basis set group =>   4
Atom  27O    basis set group =>   5
Atom  28O    basis set group =>   5
Atom  29N    basis set group =>   6
Atom  30H    basis set group =>   4
Atom  31N    basis set group =>   6
Atom  32H    basis set group =>   4
Atom  33C    basis set group =>   3
Atom  34C    basis set group =>   3
Atom  35C    basis set group =>   3
Atom  36C    basis set group =>   3
Atom  37C    basis set group =>   3
Atom  38C    basis set group =>   3
Atom  39C    basis set group =>   3
Atom  40C    basis set group =>   3
Atom  41C    basis set group =>   3
Atom  42H    basis set group =>   4
Atom  43C    basis set group =>   3
Atom  44H    basis set group =>   4
Atom  45C    basis set group =>   3
Atom  46H    basis set group =>   4
Atom  47C    basis set group =>   3
Atom  48H    basis set group =>   4
Atom  49C    basis set group =>   3
Atom  50H    basis set group =>   4
Atom  51C    basis set group =>   3
Atom  52H    basis set group =>   4
Atom  53C    basis set group =>   3
Atom  54H    basis set group =>   4
Atom  55C    basis set group =>   3
Atom  56H    basis set group =>   4
---------------------------------
AUXILIARY/J BASIS SET INFORMATION
---------------------------------
There are 6 groups of distinct atoms

 Group   1 Type Cr  : 19s5p5d3f3g contracted to 8s5p5d2f3g pattern {121111111/11111/11111/21/111}
 Group   2 Type Cl  : 14s5p5d2f1g contracted to 8s4p3d1f1g pattern {71111111/2111/311/2/1}
 Group   3 Type C   : 12s5p4d2f1g contracted to 6s4p3d1f1g pattern {711111/2111/211/2/1}
 Group   4 Type H   : 5s2p1d contracted to 3s1p1d pattern {311/2/1}
 Group   5 Type O   : 12s5p4d2f1g contracted to 6s4p3d1f1g pattern {711111/2111/211/2/1}
 Group   6 Type N   : 12s5p4d2f1g contracted to 6s4p3d1f1g pattern {711111/2111/211/2/1}

Atom   0Cr   basis set group =>   1
Atom   1Cl   basis set group =>   2
Atom   2C    basis set group =>   3
Atom   3C    basis set group =>   3
Atom   4C    basis set group =>   3
Atom   5C    basis set group =>   3
Atom   6C    basis set group =>   3
Atom   7C    basis set group =>   3
Atom   8H    basis set group =>   4
Atom   9H    basis set group =>   4
Atom  10H    basis set group =>   4
Atom  11C    basis set group =>   3
Atom  12H    basis set group =>   4
Atom  13H    basis set group =>   4
Atom  14H    basis set group =>   4
Atom  15C    basis set group =>   3
Atom  16H    basis set group =>   4
Atom  17H    basis set group =>   4
Atom  18H    basis set group =>   4
Atom  19C    basis set group =>   3
Atom  20H    basis set group =>   4
Atom  21H    basis set group =>   4
Atom  22H    basis set group =>   4
Atom  23C    basis set group =>   3
Atom  24H    basis set group =>   4
Atom  25H    basis set group =>   4
Atom  26H    basis set group =>   4
Atom  27O    basis set group =>   5
Atom  28O    basis set group =>   5
Atom  29N    basis set group =>   6
Atom  30H    basis set group =>   4
Atom  31N    basis set group =>   6
Atom  32H    basis set group =>   4
Atom  33C    basis set group =>   3
Atom  34C    basis set group =>   3
Atom  35C    basis set group =>   3
Atom  36C    basis set group =>   3
Atom  37C    basis set group =>   3
Atom  38C    basis set group =>   3
Atom  39C    basis set group =>   3
Atom  40C    basis set group =>   3
Atom  41C    basis set group =>   3
Atom  42H    basis set group =>   4
Atom  43C    basis set group =>   3
Atom  44H    basis set group =>   4
Atom  45C    basis set group =>   3
Atom  46H    basis set group =>   4
Atom  47C    basis set group =>   3
Atom  48H    basis set group =>   4
Atom  49C    basis set group =>   3
Atom  50H    basis set group =>   4
Atom  51C    basis set group =>   3
Atom  52H    basis set group =>   4
Atom  53C    basis set group =>   3
Atom  54H    basis set group =>   4
Atom  55C    basis set group =>   3
Atom  56H    basis set group =>   4


           ************************************************************
           *        Program running with 16 parallel MPI-processes    *
           *              working on a common directory               *
           ************************************************************
------------------------------------------------------------------------------
                             ORCA STARTUP CALCULATIONS
                           -- RI-GTO INTEGRALS CHOSEN --
------------------------------------------------------------------------------
------------------------------------------------------------------------------
                   ___                                                        
                  /   \      - P O W E R E D   B Y -                         
                 /     \                                                     
                 |  |  |   _    _      __       _____    __    __             
                 |  |  |  | |  | |    /  \     |  _  \  |  |  /  |          
                  \  \/   | |  | |   /    \    | | | |  |  | /  /          
                 / \  \   | |__| |  /  /\  \   | |_| |  |  |/  /          
                |  |  |   |  __  | /  /__\  \  |    /   |      \           
                |  |  |   | |  | | |   __   |  |    \   |  |\   \          
                \     /   | |  | | |  |  |  |  | |\  \  |  | \   \       
                 \___/    |_|  |_| |__|  |__|  |_| \__\ |__|  \__/        
                                                                              
                      - O R C A' S   B I G   F R I E N D -                    
                                      &                                       
                       - I N T E G R A L  F E E D E R -                       
                                                                              
 v1 FN, 2020, v2 2021, v3 2022-2024                                           
------------------------------------------------------------------------------


----------------------
SHARK INTEGRAL PACKAGE
----------------------

Number of atoms                             ...     57
Number of basis functions                   ...   1162
Number of shells                            ...    458
Maximum angular momentum                    ...      3
Integral batch strategy                     ... SHARK/LIBINT Hybrid
RI-J (if used) integral strategy            ... SPLIT-RIJ (Revised 2003 algorithm where possible)
Printlevel                                  ...      1
Contraction scheme used                     ... SEGMENTED contraction
Prescreening option                         ... SCHWARTZ
   Thresh                                   ... 2.500e-11
   Tcut                                     ... 2.500e-12
   Tpresel                                  ... 2.500e-12 
Coulomb Range Separation                    ... NOT USED
Exchange Range Separation                   ... NOT USED
Multipole approximations                    ... NOT USED
Finite Nucleus Model                        ... NOT USED
CABS basis                                  ... NOT available
Auxiliary Coulomb fitting basis             ... AVAILABLE
   # of basis functions in Aux-J            ...   1885
   # of shells in Aux-J                     ...    615
   Maximum angular momentum in Aux-J        ...      4
Auxiliary J/K fitting basis                 ... NOT available
Auxiliary Correlation fitting basis         ... NOT available
Auxiliary 'external' fitting basis          ... NOT available

Checking pre-screening integrals            ... done (  0.0 sec) Dimension = 458
Check shell pair data                       ... done (  0.0 sec)
Shell pair information
Shell pair cut-off parameter TPreSel        ...   2.5e-12
Total number of shell pairs                 ...    105111
Shell pairs after pre-screening             ...     66517
Total number of primitive shell pairs       ...    331721
Primitive shell pairs kept                  ...    132804
          la=0 lb=0:  16993 shell pairs
          la=1 lb=0:  19353 shell pairs
          la=1 lb=1:   5541 shell pairs
          la=2 lb=0:   9546 shell pairs
          la=2 lb=1:   5519 shell pairs
          la=2 lb=2:   1402 shell pairs
          la=3 lb=0:   4225 shell pairs
          la=3 lb=1:   2474 shell pairs
          la=3 lb=2:   1198 shell pairs
          la=3 lb=3:    266 shell pairs

Calculating one electron integrals          ... done (  0.1 sec)
done (  0.2 sec)
Calculating Nuclear repulsion               ... done (  0.0 sec) ENN=   4040.787001856908 Eh

Diagonalization of the overlap matrix:
Smallest eigenvalue                        ... 5.573e-06
Time for diagonalization                   ...    0.108 sec
Threshold for overlap eigenvalues          ... 1.000e-07
Number of eigenvalues below threshold      ... 0
Time for construction of square roots      ...    0.124 sec
Total time needed                          ...    0.251 sec

-------------------
DFT GRID GENERATION
-------------------

General Integration Accuracy     IntAcc      ... 4.959
Radial Grid Type                 RadialGrid  ... OptM3 with GC (2021)
Angular Grid (max. ang.)         AngularGrid ... 6 (Lebedev-590)
Angular grid pruning method      GridPruning ... 4 (adaptive)
Weight generation scheme         WeightScheme... mBecke (2022)
Basis function cutoff            BFCut       ... 1.0000e-11
Integration weight cutoff        WCut        ... 1.0000e-14
Partially contracted basis set               ... off
Rotationally invariant grid construction     ... off
Angular grids for H and He will be reduced by one unit
Core-polarized basis detected: some atoms will have their core
                               angular grid increased.

Total number of grid points                  ...   675333
Total number of batches                      ...    10575
Average number of points per batch           ...       63
Average number of grid points per atom       ...    11848

--------------------
COSX GRID GENERATION
--------------------

GRIDX 1
-------
General Integration Accuracy     IntAcc      ... 4.020
Radial Grid Type                 RadialGrid  ... OptM3 with GC (2021)
Angular Grid (max. ang.)         AngularGrid ... 2 (Lebedev-110)
Angular grid pruning method      GridPruning ... 4 (adaptive)
Weight generation scheme         WeightScheme... mBecke (2022)
Basis function cutoff            BFCut       ... 1.0000e-11
Integration weight cutoff        WCut        ... 1.0000e-14
Partially contracted basis set               ... on
Rotationally invariant grid construction     ... off
Angular grids for H and He will be reduced by one unit
Core-polarized basis detected: some atoms will have their core
                               angular grid increased.

Total number of grid points                  ...    76916
Total number of batches                      ...      633
Average number of points per batch           ...      121
Average number of grid points per atom       ...     1349
UseSFitting                                  ... on

GRIDX 2
-------
General Integration Accuracy     IntAcc      ... 4.338
Radial Grid Type                 RadialGrid  ... OptM3 with GC (2021)
Angular Grid (max. ang.)         AngularGrid ... 3 (Lebedev-194)
Angular grid pruning method      GridPruning ... 4 (adaptive)
Weight generation scheme         WeightScheme... mBecke (2022)
Basis function cutoff            BFCut       ... 1.0000e-11
Integration weight cutoff        WCut        ... 1.0000e-14
Partially contracted basis set               ... on
Rotationally invariant grid construction     ... off
Angular grids for H and He will be reduced by one unit
Core-polarized basis detected: some atoms will have their core
                               angular grid increased.

Total number of grid points                  ...   162399
Total number of batches                      ...     1295
Average number of points per batch           ...      125
Average number of grid points per atom       ...     2849
UseSFitting                                  ... on

GRIDX 3
-------
General Integration Accuracy     IntAcc      ... 4.871
Radial Grid Type                 RadialGrid  ... OptM3 with GC (2021)
Angular Grid (max. ang.)         AngularGrid ... 4 (Lebedev-302)
Angular grid pruning method      GridPruning ... 4 (adaptive)
Weight generation scheme         WeightScheme... mBecke (2022)
Basis function cutoff            BFCut       ... 1.0000e-11
Integration weight cutoff        WCut        ... 1.0000e-14
Partially contracted basis set               ... on
Rotationally invariant grid construction     ... off
Angular grids for H and He will be reduced by one unit
Core-polarized basis detected: some atoms will have their core
                               angular grid increased.

Total number of grid points                  ...   303396
Total number of batches                      ...     2398
Average number of points per batch           ...      126
Average number of grid points per atom       ...     5323
UseSFitting                                  ... on
Initializing property integral containers    ... done (  0.0 sec)

SHARK setup successfully completed in  10.5 seconds

Maximum memory used throughout the entire STARTUP-calculation: 220.2 MB


           ************************************************************
           *        Program running with 16 parallel MPI-processes    *
           *              working on a common directory               *
           ************************************************************
-------------------------------------------------------------------------------
                                 ORCA GUESS
                   Start orbitals & Density for SCF / CASSCF
-------------------------------------------------------------------------------

------------
SCF SETTINGS
------------
Hamiltonian:
 Density Functional     Method          .... DFT(GTOs)
 Exchange Functional    Exchange        .... PBE
   PBE kappa parameter   XKappa         ....  0.804000
   PBE mue parameter    XMuePBE         ....  0.219520
 Correlation Functional Correlation     .... PBE
   PBE beta parameter  CBetaPBE         ....  0.066725
 LDA part of GGA corr.  LDAOpt          .... PW91-LDA
 Gradients option       PostSCFGGA      .... off
 Hybrid DFT is turned on
   Fraction HF Exchange ScalHFX         ....  0.250000
   Scaling of DF-GGA-X  ScalDFX         ....  0.750000
   Scaling of DF-GGA-C  ScalDFC         ....  1.000000
   Scaling of DF-LDA-C  ScalLDAC        ....  1.000000
   Perturbative correction              ....  0.000000
   NL short-range parameter             ....  6.900000
 RI-approximation to the Coulomb term is turned on
   Number of AuxJ basis functions       .... 1885
   RIJ-COSX (HFX calculated with COS-X)).... on


General Settings:
 Integral files         IntName         .... OWUTIL02-S3
 Hartree-Fock type      HFTyp           .... UHF
 Total Charge           Charge          ....    0
 Multiplicity           Mult            ....    3
 Number of Electrons    NEL             ....  252
 Basis Dimension        Dim             .... 1162
 Nuclear Repulsion      ENuc            ....   4040.7870018569 Eh

Convergence Acceleration:
 AO-DIIS                CNVDIIS         .... on
   Start iteration      DIISMaxIt       ....    12
   Startup error        DIISStart       ....  0.200000
   # of expansion vecs  DIISMaxEq       ....     5
   Bias factor          DIISBfac        ....   1.050
   Max. coefficient     DIISMaxC        ....  10.000
 MO-DIIS                CNVKDIIS        .... off
 Trust-Rad. Augm. Hess. CNVTRAH         .... auto
   Auto Start mean grad. ratio tolernc. ....  1.125000
   Auto Start start iteration           ....    50
   Auto Start num. interpolation iter.  ....    10
   Max. Number of Micro iterations      ....    24
   Max. Number of Macro iterations      .... Maxiter - #DIIS iter
   Number of Davidson start vectors     ....     2
   Converg. threshold    (grad. norm)   ....   1.000e-05
   Grad. Scal. Fac. for Micro threshold ....   0.100
   Minimum threshold for Micro iter.    ....   1.000e-02
   NR start threshold (gradient norm)   ....   1.000e-04
   Initial trust radius                 ....   0.400
   Minimum AH scaling param. (alpha)    ....   1.000
   Maximum AH scaling param. (alpha)    .... 1000.000
   Quad. conv. algorithm                .... NR
   White noise on init. David. guess    .... on
   Maximum white noise                  ....   0.010
   Pseudo random numbers                .... off
   Inactive MOs                         .... canonical
   Orbital update algorithm             .... Taylor
   Preconditioner                       .... Diag
   Full preconditioner red. dimension   ....   250
 SOSCF                  CNVSOSCF        .... on
   Start iteration      SOSCFMaxIt      ....   150
   Startup grad/error   SOSCFStart      ....  0.003300
   Hessian update       SOSCFHessUp     .... L-BFGS
 Level Shifting         CNVShift        .... on
   Level shift para.    LevelShift      ....    0.2500
   Turn off err/grad.   ShiftErr        ....    0.0010
 Zerner damping         CNVZerner       .... off
 Static damping         CNVDamp         .... on
   Fraction old density DampFac         ....    0.7000
   Max. Damping (<1)    DampMax         ....    0.9800
   Min. Damping (>=0)   DampMin         ....    0.0000
   Turn off err/grad.   DampErr         ....    0.1000

SCF Procedure:
 Maximum # iterations   MaxIter         ....   125
 SCF integral mode      SCFMode         .... Direct
   Integral package                     .... SHARK and LIBINT hybrid scheme
 Reset frequency        DirectResetFreq ....    20
 Integral Threshold     Thresh          ....  2.500e-11 Eh
 Primitive CutOff       TCut            ....  2.500e-12 Eh

Convergence Tolerance:
 Convergence Check Mode ConvCheckMode   .... Total+1el-Energy
 Convergence forced     ConvForced      .... 0
 Energy Change          TolE            ....  1.000e-08 Eh
 1-El. energy change                    ....  1.000e-05 Eh
 Orbital Gradient       TolG            ....  1.000e-05
 Orbital Rotation angle TolX            ....  1.000e-05
 DIIS Error             TolErr          ....  5.000e-07

[...]
150:   3049.21   0.005694   28.78  0.000583  (-0.016682 -0.007094  0.015943)
151:   3107.44   0.001604    8.11  0.000161  (-0.003788 -0.011285  0.004404)
152:   3114.74   0.000282    1.42  0.000028  ( 0.002406  0.004704 -0.000571)
153:   3115.61   0.000507    2.56  0.000051  (-0.005551 -0.003036  0.003285)
154:   3116.11   0.000839    4.24  0.000084  (-0.005584 -0.006090 -0.003975)
155:   3117.11   0.002573   13.00  0.000258  (-0.007590 -0.010852  0.009065)
156:   3138.51   0.001575    7.96  0.000157  (-0.003286 -0.003221 -0.011639)
157:   3145.36   0.000809    4.09  0.000080  ( 0.000829  0.003740  0.008101)
158:   3146.50   0.002945   14.88  0.000292  (-0.012133  0.011908 -0.001754)
159:   3148.90   0.002430   12.28  0.000241  ( 0.002757  0.005373  0.014295)
160:   3149.49   0.000552    2.79  0.000055  ( 0.006753 -0.001084  0.002810)
161:   3188.72   0.000018    0.09  0.000002  (-0.000832 -0.001042 -0.000119)
162:   3188.96   0.000029    0.14  0.000003  ( 0.000741  0.001175 -0.000932)
163:   3199.04   0.000801    4.05  0.000078  (-0.000936 -0.002303  0.008481)
164:   3199.09   0.000958    4.84  0.000093  ( 0.005900  0.007633  0.000582)
165:   3207.93   0.002163   10.93  0.000210  (-0.009940 -0.010566  0.000008)
166:   3208.01   0.002593   13.10  0.000252  ( 0.004481  0.012026 -0.009353)
167:   3217.69   0.006413   32.41  0.000622  (-0.009373 -0.004278 -0.022710)
168:   3217.78   0.000716    3.62  0.000069  ( 0.002170  0.003432  0.007279)
169:   3629.29   0.005645   28.53  0.000485  (-0.015853 -0.004950  0.014478)
170:   3644.83   0.007537   38.09  0.000645  ( 0.008174  0.023947 -0.002252)

* The epsilon (eps) is given for a Dirac delta lineshape.
** The dipole moment derivative (T) already includes vibrational overlap.

The first frequency considered to be a vibration is 6
The total number of vibrations considered is 165


--------------------------
THERMOCHEMISTRY AT 298.15K
--------------------------

Temperature         ...   298.15 K
Pressure            ...     1.00 atm
Total Mass          ...   484.95 AMU
Quasi RRHO          ...     True
Cut-Off Frequency   ...     1.00 cm^-1

Throughout the following assumptions are being made:
  (1) The electronic state is orbitally nondegenerate
      but the spin degeneracy is treated
  (2) There are no thermally accessible electronically excited states
  (3) Hindered rotations indicated by low frequency modes are not
      treated as such but are treated as vibrations and this may
      cause some error
  (4) All equations used are the standard statistical mechanics
      equations for an ideal gas
  (5) All vibrations are strictly harmonic

freq.      18.62  E(vib)   ...       0.57 
freq.      28.02  E(vib)   ...       0.55 
freq.      38.94  E(vib)   ...       0.54 
freq.      42.16  E(vib)   ...       0.53 
freq.      62.10  E(vib)   ...       0.51 
freq.      73.14  E(vib)   ...       0.49 
freq.      79.73  E(vib)   ...       0.49 
freq.      85.37  E(vib)   ...       0.48 
freq.      98.59  E(vib)   ...       0.46 
freq.     101.29  E(vib)   ...       0.46 
freq.     106.15  E(vib)   ...       0.45 
freq.     107.16  E(vib)   ...       0.45 
freq.     112.56  E(vib)   ...       0.45 
freq.     116.22  E(vib)   ...       0.44 
freq.     131.21  E(vib)   ...       0.42 
freq.     139.20  E(vib)   ...       0.42 
freq.     144.96  E(vib)   ...       0.41 
freq.     163.00  E(vib)   ...       0.39 
freq.     171.03  E(vib)   ...       0.38 
freq.     173.74  E(vib)   ...       0.38 
freq.     201.51  E(vib)   ...       0.35 
freq.     218.83  E(vib)   ...       0.33 
freq.     233.17  E(vib)   ...       0.32 
freq.     236.86  E(vib)   ...       0.32 
freq.     244.56  E(vib)   ...       0.31 
freq.     268.69  E(vib)   ...       0.29 
freq.     275.59  E(vib)   ...       0.28 
freq.     279.02  E(vib)   ...       0.28 
freq.     282.87  E(vib)   ...       0.28 
freq.     295.31  E(vib)   ...       0.27 
freq.     305.88  E(vib)   ...       0.26 
freq.     316.26  E(vib)   ...       0.25 
freq.     345.23  E(vib)   ...       0.23 
freq.     369.96  E(vib)   ...       0.21 
freq.     388.41  E(vib)   ...       0.20 
freq.     400.22  E(vib)   ...       0.19 
freq.     410.15  E(vib)   ...       0.19 
freq.     421.59  E(vib)   ...       0.18 
freq.     425.24  E(vib)   ...       0.18 
freq.     432.62  E(vib)   ...       0.18 
freq.     435.22  E(vib)   ...       0.17 
freq.     440.44  E(vib)   ...       0.17 
freq.     484.73  E(vib)   ...       0.15 
freq.     504.51  E(vib)   ...       0.14 
freq.     551.07  E(vib)   ...       0.12 
freq.     553.72  E(vib)   ...       0.12 
freq.     554.31  E(vib)   ...       0.12 
freq.     561.17  E(vib)   ...       0.11 
freq.     564.57  E(vib)   ...       0.11 
freq.     570.52  E(vib)   ...       0.11 
freq.     591.43  E(vib)   ...       0.10 
freq.     592.66  E(vib)   ...       0.10 
freq.     605.98  E(vib)   ...       0.10 
freq.     610.53  E(vib)   ...       0.10 
freq.     651.34  E(vib)   ...       0.08 
freq.     654.23  E(vib)   ...       0.08 
freq.     659.50  E(vib)   ...       0.08 
freq.     676.56  E(vib)   ...       0.08 
freq.     701.01  E(vib)   ...       0.07 
freq.     738.99  E(vib)   ...       0.06 
freq.     755.26  E(vib)   ...       0.06 
freq.     759.56  E(vib)   ...       0.06 
freq.     761.13  E(vib)   ...       0.06 
freq.     786.68  E(vib)   ...       0.05 
freq.     789.32  E(vib)   ...       0.05 
freq.     795.63  E(vib)   ...       0.05 
freq.     820.48  E(vib)   ...       0.05 
freq.     823.12  E(vib)   ...       0.05 
freq.     824.74  E(vib)   ...       0.04 
freq.     865.37  E(vib)   ...       0.04 
freq.     865.89  E(vib)   ...       0.04 
freq.     892.64  E(vib)   ...       0.03 
freq.     907.06  E(vib)   ...       0.03 
freq.     940.78  E(vib)   ...       0.03 
freq.     941.15  E(vib)   ...       0.03 
freq.     960.67  E(vib)   ...       0.03 
freq.     961.53  E(vib)   ...       0.03 
freq.     965.76  E(vib)   ...       0.03 
freq.     968.07  E(vib)   ...       0.03 
freq.     968.74  E(vib)   ...       0.03 
freq.    1041.27  E(vib)   ...       0.02 
freq.    1043.32  E(vib)   ...       0.02 
freq.    1043.72  E(vib)   ...       0.02 
freq.    1044.33  E(vib)   ...       0.02 
freq.    1045.13  E(vib)   ...       0.02 
freq.    1057.45  E(vib)   ...       0.02 
freq.    1058.01  E(vib)   ...       0.02 
freq.    1090.99  E(vib)   ...       0.02 
freq.    1093.06  E(vib)   ...       0.02 
freq.    1121.98  E(vib)   ...       0.01 
freq.    1123.68  E(vib)   ...       0.01 
freq.    1131.77  E(vib)   ...       0.01 
freq.    1148.70  E(vib)   ...       0.01 
freq.    1171.22  E(vib)   ...       0.01 
freq.    1171.49  E(vib)   ...       0.01 
freq.    1191.32  E(vib)   ...       0.01 
freq.    1192.20  E(vib)   ...       0.01 
freq.    1224.41  E(vib)   ...       0.01 
freq.    1237.28  E(vib)   ...       0.01 
freq.    1255.81  E(vib)   ...       0.01 
freq.    1263.42  E(vib)   ...       0.01 
freq.    1281.25  E(vib)   ...       0.01 
freq.    1322.05  E(vib)   ...       0.01 
freq.    1324.72  E(vib)   ...       0.01 
freq.    1353.95  E(vib)   ...       0.01 
freq.    1372.73  E(vib)   ...       0.01 
freq.    1387.29  E(vib)   ...       0.00 
freq.    1390.74  E(vib)   ...       0.00 
freq.    1391.97  E(vib)   ...       0.00 
freq.    1404.73  E(vib)   ...       0.00 
freq.    1405.72  E(vib)   ...       0.00 
freq.    1408.87  E(vib)   ...       0.00 
freq.    1424.46  E(vib)   ...       0.00 
freq.    1444.98  E(vib)   ...       0.00 
freq.    1445.89  E(vib)   ...       0.00 
freq.    1448.70  E(vib)   ...       0.00 
freq.    1457.97  E(vib)   ...       0.00 
freq.    1461.03  E(vib)   ...       0.00 
freq.    1465.98  E(vib)   ...       0.00 
freq.    1470.59  E(vib)   ...       0.00 
freq.    1473.39  E(vib)   ...       0.00 
freq.    1476.86  E(vib)   ...       0.00 
freq.    1480.24  E(vib)   ...       0.00 
freq.    1483.43  E(vib)   ...       0.00 
freq.    1490.43  E(vib)   ...       0.00 
freq.    1500.59  E(vib)   ...       0.00 
freq.    1503.02  E(vib)   ...       0.00 
freq.    1504.03  E(vib)   ...       0.00 
freq.    1510.48  E(vib)   ...       0.00 
freq.    1525.35  E(vib)   ...       0.00 
freq.    1531.64  E(vib)   ...       0.00 
freq.    1534.82  E(vib)   ...       0.00 
freq.    1555.18  E(vib)   ...       0.00 
freq.    1560.48  E(vib)   ...       0.00 
freq.    1626.05  E(vib)   ...       0.00 
freq.    1639.07  E(vib)   ...       0.00 
freq.    1647.71  E(vib)   ...       0.00 
freq.    1650.70  E(vib)   ...       0.00 
freq.    1666.79  E(vib)   ...       0.00 
freq.    1674.25  E(vib)   ...       0.00 
freq.    3040.39  E(vib)   ...       0.00 
freq.    3043.80  E(vib)   ...       0.00 
freq.    3044.30  E(vib)   ...       0.00 
freq.    3048.51  E(vib)   ...       0.00 
freq.    3049.21  E(vib)   ...       0.00 
freq.    3107.44  E(vib)   ...       0.00 
freq.    3114.74  E(vib)   ...       0.00 
freq.    3115.61  E(vib)   ...       0.00 
freq.    3116.11  E(vib)   ...       0.00 
freq.    3117.11  E(vib)   ...       0.00 
freq.    3138.51  E(vib)   ...       0.00 
freq.    3145.36  E(vib)   ...       0.00 
freq.    3146.50  E(vib)   ...       0.00 
freq.    3148.90  E(vib)   ...       0.00 
freq.    3149.49  E(vib)   ...       0.00 
freq.    3188.72  E(vib)   ...       0.00 
freq.    3188.96  E(vib)   ...       0.00 
freq.    3199.04  E(vib)   ...       0.00 
freq.    3199.09  E(vib)   ...       0.00 
freq.    3207.93  E(vib)   ...       0.00 
freq.    3208.01  E(vib)   ...       0.00 
freq.    3217.69  E(vib)   ...       0.00 
freq.    3217.78  E(vib)   ...       0.00 
freq.    3629.29  E(vib)   ...       0.00 
freq.    3644.83  E(vib)   ...       0.00 

------------
INNER ENERGY
------------

The inner energy is: U= E(el) + E(ZPE) + E(vib) + E(rot) + E(trans)
    E(el)   - is the total energy from the electronic structure calculation
              = E(kin-el) + E(nuc-el) + E(el-el) + E(nuc-nuc)
    E(ZPE)  - the the zero temperature vibrational energy from the frequency calculation
    E(vib)  - the the finite temperature correction to E(ZPE) due to population
              of excited vibrational states
    E(rot)  - is the rotational thermal energy
    E(trans)- is the translational thermal energy

Summary of contributions to the inner energy U:
Electronic energy                ...  -2769.27329568 Eh
Zero point energy                ...      0.45170881 Eh     283.45 kcal/mol
Thermal vibrational correction   ...      0.02836255 Eh      17.80 kcal/mol
Thermal rotational correction    ...      0.00141627 Eh       0.89 kcal/mol
Thermal translational correction ...      0.00141627 Eh       0.89 kcal/mol
-----------------------------------------------------------------------
Total thermal energy                  -2768.79039177 Eh


Summary of corrections to the electronic energy:
(perhaps to be used in another calculation)
Total thermal correction                  0.03119509 Eh      19.58 kcal/mol
Non-thermal (ZPE) correction              0.45170881 Eh     283.45 kcal/mol
-----------------------------------------------------------------------
Total correction                          0.48290391 Eh     303.03 kcal/mol


--------
ENTHALPY
--------

The enthalpy is H = U + kB*T
                kB is Boltzmann's constant
Total thermal energy              ...  -2768.79039177 Eh 
Thermal Enthalpy correction       ...      0.00094421 Eh       0.59 kcal/mol
-----------------------------------------------------------------------
Total Enthalpy                    ...  -2768.78944756 Eh


Note: Only C1 symmetry has been detected, increase convergence thresholds 
      if your molecule has a higher symmetry. Symmetry factor of 1.0 is   
      used for the rotational entropy correction. 
 

Note: Rotational entropy computed according to Herzberg 
Infrared and Raman Spectra, Chapter V,1, Van Nostrand Reinhold, 1945 
Point Group:  C1, Symmetry Number:   1  
Rotational constants in cm-1:     0.004540     0.004449     0.002629 

Vibrational entropy computed according to the QRRHO of S. Grimme
Chem.Eur.J. 2012 18 9955 using a reference frequency of 100.0 cm-1


-------
ENTROPY
-------

The entropy contributions are T*S = T*(S(el)+S(vib)+S(rot)+S(trans))
     S(el)   - electronic entropy
     S(vib)  - vibrational entropy
     S(rot)  - rotational entropy
     S(trans)- translational entropy
The entropies will be listed as multiplied by the temperature to get
units of energy

Electronic entropy                ...      0.00103729 Eh      0.65 kcal/mol
Vibrational entropy               ...      0.05064299 Eh     31.78 kcal/mol
Rotational entropy                ...      0.01741887 Eh     10.93 kcal/mol
Translational entropy             ...      0.02110736 Eh     13.25 kcal/mol
-----------------------------------------------------------------------
Final entropy term                ...      0.09020651 Eh     56.61 kcal/mol

In case the symmetry of your molecule has not been determined correctly
or in case you have a reason to use a different symmetry number we print 
out the resulting rotational entropy values for sn=1,12:

 non-linear molecules -----------------------------------
|  sn= 1 | S(rot)=       0.01741887 Eh     10.93 kcal/mol|
|  sn= 2 | S(rot)=       0.01676442 Eh     10.52 kcal/mol|
|  sn= 3 | S(rot)=       0.01638158 Eh     10.28 kcal/mol|
|  sn= 4 | S(rot)=       0.01610996 Eh     10.11 kcal/mol|
|  sn= 5 | S(rot)=       0.01589927 Eh      9.98 kcal/mol|
|  sn= 6 | S(rot)=       0.01572713 Eh      9.87 kcal/mol|
|  sn= 7 | S(rot)=       0.01558158 Eh      9.78 kcal/mol|
|  sn= 8 | S(rot)=       0.01545550 Eh      9.70 kcal/mol|
|  sn= 9 | S(rot)=       0.01534430 Eh      9.63 kcal/mol|
|  sn=10 | S(rot)=       0.01524482 Eh      9.57 kcal/mol|
|  sn=11 | S(rot)=       0.01515483 Eh      9.51 kcal/mol|
|  sn=12 | S(rot)=       0.01507267 Eh      9.46 kcal/mol|
 linear molecules ---------------------------------------
|  Dinfh | S(rot)=       0.01093536 Eh      6.86 kcal/mol|
|  Cinfv | S(rot)=       0.01158982 Eh      7.27 kcal/mol|
 --------------------------------------------------------


-------------------
GIBBS FREE ENERGY
-------------------

The Gibbs free energy is G = H - T*S

Total enthalpy                    ...  -2768.78944756 Eh 
Total entropy correction          ...     -0.09020651 Eh    -56.61 kcal/mol
-----------------------------------------------------------------------
Final Gibbs free energy         ...  -2768.87965407 Eh

For completeness - the Gibbs free energy minus the electronic energy
G-E(el)                           ...      0.39364160 Eh    247.01 kcal/mol


Maximum memory used throughout the entire PROP-calculation: 1824.7 MB

--------------------------------
SUGGESTED CITATIONS FOR THIS RUN
--------------------------------

Below you find a list of papers that are relevant to this ORCA run
We neither can nor want to force you to cite these papers, but we appreciate if you do
You receive ORCA, which is the product of decades of hard work by many enthusiastic individuals, for free
The only thing we kindly ask in return is that you cite our papers,
We deeply appreciate it, if you show your appreciation for ORCA by not just citing the generic ORCA reference.

Please note that relegating all ORCA citations to the supporting information does *not* help us.
SI sections are not indexed - citations you put there will not count into any citation statistics
But we need these citations in order to attract the funding resources that allow us to do what we are doing

Therefore, if you are a happy ORCA user, please consider citing a few of the papers listed below in the main body of your paper

In addition to the list printed below, the program has created the file OWUTIL02-S3.bibtex that contains the list in bibtex format
You can import this file easily into all common literature databanks and citation aid programs


List of essential papers. We consider these as the minimum necessary citations

  1. Neese,F.
     Software update: the ORCA program system, version 5.0
     WIRES Comput. Molec. Sci., 2022 12(1)e1606
     doi.org/10.1002/wcms.1606

List of papers to cite with high priority. The work reported in these papers was absolutely
necessary for this run to complete.
Our perspective: the developers of density functionals and basis sets usually get cited in chemistry papers
Good! But without the algorithms to do something with them, the functionals or basis sets would not do anything.
Hence, in our opinion, the algorithm design and method developments papers are equally worthy of getting cited

  1. Neese,F.
     An improvement of the resolution of the identity approximation for the formation of the Coulomb matrix
     J. Comp. Chem., 2003 24(14)1740-1747
     doi.org/10.1002/jcc.10318
  2. Neese,F.; Wennmohs,F.; Hansen,A.; Becker,U.
     Efficient, approximate and parallel Hartree-Fock and hybrid DFT calculations. A 'chain-of-spheres' algorithm for the Hartree-Fock exchange
     Chem. Phys., 2009 356(1-3)98-109
     doi.org/10.1016/j.chemphys.2008.10.036
  3. Bykov,D.; Petrenko,T.; Izsak,R.; Kossmann,S.; Becker,U.; Valeev,E.; Neese,F.
     Efficient implementation of the analytic second derivatives of Hartree-Fock and hybrid DFT energies: a detailed analysis of different approximations
     Molec. Phys., 2015 113 1961-1977
     doi.org/10.1080/00268976.2015.1025114
  4. Helmich-Paris,B.; de Souza,B.; Neese,F.; Izsák,R.
     An improved chain of spheres for exchange algorithm
     J. Chem. Phys., 2021 155 104109
     doi.org/doi: 10.1063/5.0058766.
  5. Neese,F.
     The SHARK Integral Generation and Digestion System
     J. Comp. Chem., 2022  1-16
     doi.org/10.1002/jcc.26942

List of suggested additional citations. These are papers that are important in the 'surrounding' of 
of this run, or papers that preceded the highly important papers. If you like your results we are grateful for a citation.

  1. Izsak,R.; Neese,F.
     An overlap fitted chain of spheres exchange method
     J. Chem. Phys., 2011 135 144105
     doi.org/10.1063/1.3646921
  2. Izsak,R.; Hansen,A.; Neese,F.
     The resolution of identity and chain of spheres approximations for the LPNO-CCSD singles Fock term
     Molec. Phys., 2012 110 2413-2417
     doi.org/10.1080/00268976.2012.687466
  3. Neese,F.
     The ORCA program system
     WIRES Comput. Molec. Sci., 2012 2(1)73-78
     doi.org/10.1002/wcms.81
  4. Izsak,R.; Neese,F.; Klopper,W.
     Robust fitting techniques in the chain of spheres approximation to the Fock exchange: The role of the complementary space
     J. Chem. Phys., 2013 139 
     doi.org/10.1063/1.4819264
  5. Neese,F.
     Software update: the ORCA program system, version 4.0
     WIRES Comput. Molec. Sci., 2018 8(1)1-6
     doi.org/10.1002/wcms.1327
  6. Neese,F.; Wennmohs,F.; Becker,U.; Riplinger,C.
     The ORCA quantum chemistry program package
     J. Chem. Phys., 2020 152 Art. No. L224108
     doi.org/10.1063/5.0004608

List of optional additional citations

  1. Neese,F.
     Approximate second-order SCF convergence for spin unrestricted wavefunctions
     Chem. Phys. Lett., 2000 325(1-3)93-98
     doi.org/10.1016/s0009-2614(00)00662-x

Timings for individual modules:

Sum of individual times          ...    34695.059 sec (= 578.251 min)
Startup calculation              ...      570.631 sec (=   9.511 min)   1.6 %
SCF iterations                   ...    12615.310 sec (= 210.255 min)  36.4 %
Property integrals               ...     5860.081 sec (=  97.668 min)  16.9 %
SCF Response                     ...    10807.997 sec (= 180.133 min)  31.2 %
Property calculations            ...     1546.352 sec (=  25.773 min)   4.5 %
SCF Gradient evaluation          ...     3292.193 sec (=  54.870 min)   9.5 %
Geometry relaxation              ...        2.496 sec (=   0.042 min)   0.0 %
                             ****ORCA TERMINATED NORMALLY****
TOTAL RUN TIME: 0 days 9 hours 39 minutes 18 seconds 71 msec
