
                                 *****************
                                 * O   R   C   A *
                                 *****************

                                            #,                                       
                                            ###                                      
                                            ####                                     
                                            #####                                    
                                            ######                                   
                                           ########,                                 
                                     ,,################,,,,,                         
                               ,,#################################,,                 
                          ,,##########################################,,             
                       ,#########################################, ''#####,          
                    ,#############################################,,   '####,        
                  ,##################################################,,,,####,       
                ,###########''''           ''''###############################       
              ,#####''   ,,,,##########,,,,          '''####'''          '####       
            ,##' ,,,,###########################,,,                        '##       
           ' ,,###''''                  '''############,,,                           
         ,,##''                                '''############,,,,        ,,,,,,###''
      ,#''                                            '''#######################'''  
     '                                                          ''''####''''         
             ,#######,   #######,   ,#######,      ##                                
            ,#'     '#,  ##    ##  ,#'     '#,    #''#        ,####,   ,####,        
            ##       ##  ##   ,#'  ##            #'  '#       #'       #'  '#        
            ##       ##  #######   ##           ,######,      #####,   #    #        
            '#,     ,#'  ##    ##  '#,     ,#' ,#      #,     #,   #   #,  ,#        
             '#######'   ##     ##  '#######'  #'      '#     '####' # '####'        



                #########################################################
                #                        -***-                          #
                #          Department of theory and spectroscopy        #
                #                                                       #
                #                      Frank Neese                      #
                #                                                       #
                #     Directorship, Architecture, Infrastructure        #
                #                    SHARK, DRIVERS                     #
                #        Core code/Algorithms in most modules           #
                #                                                       #
                #        Max Planck Institute fuer Kohlenforschung      #
                #                Kaiser Wilhelm Platz 1                 #
                #                 D-45470 Muelheim/Ruhr                 #
                #                      Germany                          #
                #                                                       #
                #                  All rights reserved                  #
                #                        -***-                          #
                #########################################################


                         Program Version 6.0.1  -  RELEASE   -


 With contributions from (in alphabetic order):
[Max-Planck-Institut fuer Kohlenforschung]                               
  Daniel Aravena         : Magnetic Suceptibility                        
  Michael Atanasov       : Ab Initio Ligand Field Theory (pilot matlab implementation)
  Alexander A. Auer      : GIAO ZORA, VPT2 properties, NMR spectrum      
  Ute Becker             : All parallelization in ORCA, NUMFREQ, NUMCALC 
  Giovanni Bistoni       : ED, misc. LED, open-shell LED, HFLD           
  Martin Brehm           : Molecular dynamics                            
  Dmytro Bykov           : pre 5.0 version of the SCF Hessian            
  Marcos Casanova-Páez   : Triplet and SCS-CIS(D). UHF-(DLPNO)-IP/EA/STEOM-CCSD. UHF-CVS-IP/STEOM-CCSD   
  Vijay G. Chilkuri      : MRCI spin determinant printing, contributions to CSF-ICE 
  Pauline Colinet        : FMM embedding                                 
  Dipayan Datta          : RHF DLPNO-CCSD density                        
  Achintya Kumar Dutta   : EOM-CC, STEOM-CC                              
  Nicolas Foglia         : Exact transition moments, OPA infrastructure, MCD improvements    
  Dmitry Ganyushin       : Spin-Orbit,Spin-Spin,Magnetic field MRCI      
  Miquel Garcia-Rates    : C-PCM and meta-GGA Hessian, CCSD/C-PCM, Gaussian charge scheme 
  Tiago L. C. Gouveia    : GS-ROHF, GS-ROCIS                             
  Yang Guo               : DLPNO-NEVPT2, F12-NEVPT2, CIM, IAO-localization        
  Andreas Hansen         : Spin unrestricted coupled pair/coupled cluster methods 
  Ingolf Harden          : AUTO-CI MPn and infrastructure                
  Benjamin Helmich-Paris : MC-RPA, TRAH-(SCF,CASSCF), AVAS, COSX integrals, SCF dyn. polar. 
  Lee Huntington         : MR-EOM, pCC                                   
  Robert Izsak           : Overlap fitted RIJCOSX, COSX-SCS-MP3, EOM     
  Riya Kayal             : Wick's Theorem for AUTO-CI, AUTO-CI UHF-CCSDT 
  Emily Kempfer          : AUTO-CI, RHF CISDT and CCSDT                  
  Christian Kollmar      : KDIIS, OOCD, Brueckner-CCSD(T), CCSD density, CASPT2, CASPT2-K, improved NEVPT2 
  Axel Koslowski         : Symmetry handling                             
  Simone Kossmann        : meta-GGA functionals, TD-DFT gradient, OOMP2, (MP2 Hessian; deprecated post 5.0) 
  Lucas Lang             : DCDCAS                                        
  Marvin Lechner         : AUTO-CI (C++ implementation), FIC-MRCC        
  Spencer Leger          : CASSCF response                               
  Dagmar Lenk            : GEPOL surface, SMD, ORCA-2-JSON               
  Dimitrios Liakos       : Extrapolation schemes; Compound Job, initial MDCI parallelization 
  Dimitrios Manganas     : Further ROCIS development; embedding schemes. LFT, Crystal Embedding 
  Dimitrios Pantazis     : SARC Basis sets                               
  Anastasios Papadopoulos: AUTO-CI, single reference methods and gradients 
  Taras Petrenko         : pre 6.0 DFT Hessian and TD-DFT gradient, (ASA, deprecated), ECA, 1-Electron XAS/XES, NRVS 
  Peter Pinski           : DLPNO-MP2, DLPNO-MP2 Gradient                 
  Christoph Reimann      : Effective Core Potentials                     
  Marius Retegan         : Local ZFS, SOC                                
  Christoph Riplinger    : Optimizer, TS searches, QM/MM, DLPNO-CCSD(T), (RO)-DLPNO pert. Triples 
  Michael Roemelt        : Original ROCIS implementation                 
  Masaaki Saitow         : Open-shell DLPNO-CCSD energy and density      
  Barbara Sandhoefer     : DKH picture change effects                    
  Kantharuban Sivalingam : CASSCF convergence/infrastructure, NEVPT2 and variants, FIC-MRCI 
  Bernardo de Souza      : ESD, SOC TD-DFT                               
  Georgi L. Stoychev     : AutoAux, RI-MP2 NMR, DLPNO-MP2 response, X2C  
  Van Anh Tran           : RI-MP2 g-tensors                              
  Willem Van den Heuvel  : Paramagnetic NMR                              
  Zikuan Wang            : NOTCH, Electric field optimization            
  Frank Wennmohs         : Technical directorship and infrastructure     
  Hang Xu                : AUTO-CI-Response properties                   
                                                                         
[FACCTs GmbH]                                                            
  Markus Bursch, Miquel Garcia-Rates, Christoph Riplinger, Bernardo de Souza, Georgi L. Stoychev 
                                                                 
  APM, Basis sets (HGBS, AHGBS, def-TZVP (Ac-Lr), def2-XVPD (La-Lu)), CI-OPT, improved COSX, DLPNO-Multilevel,           
  DOCKER, DRACO, updates on ESD, GOAT, IRC, LR-CPCM, MBIS, meta-GGA TD-DFT gradient, ML-optimized integration grids, 
  MM, NACMEs, nearIR, NEB, NEB-TS, NL-DFT gradient (VV10), 2- and 3-layer-ONIOM, interface openCOSMO-RS, QMMM,   
  Crystal-QMMM, SF, symmetry and pop. for TD-DFT, r2SCAN hybrids, SOLVATOR                                   
                                                                         
[Other institutions]                                                     
  V. Asgeirsson          : NEB                                           
  Christoph Bannwarth    : sTDA-DFT, sTD-DFT, PBEh-3c, B97-3c, D3        
  Sebastian Ehlert       : rSCAN, r2SCAN, r2SCAN-3c, D4, dhf basis sets  
  Marvin Friede          : D4 for Fr, Ra, Ac-Lr                          
  Lars Goerigk           : TD-DFT with DH, B97 family of functionals     
  Stefan Grimme          : VdW corrections, initial TS optimization, DFT functionals, gCP, sTDA/sTD-DF 
  Waldemar Hujo          : DFT-NL                                        
  H. Jonsson             : NEB                                           
  Holger Kruse           : gCP                                           
  Marcel Mueller         : wB97X-3c, vDZP basis set                      
  Hagen Neugebauer       : wr2SCAN                                       
  Tobias Risthaus        : range-separated hybrid DFT                    
  Lukas Wittmann         : regularized MP2, r2SCAN double-hybrids, wr2SCAN        
                                                                         
We gratefully acknowledge several colleagues who have allowed us to      
interface, adapt or use parts of their codes:                            
  Ed Valeev, F. Pavosevic, A. Kumar             : LibInt (2-el integral package), F12 methods 
  Garnet Chan, S. Sharma, J. Yang, R. Olivares  : DMRG                   
  Ulf Ekstrom                                   : XCFun DFT Library      
  Mihaly Kallay                                 : mrcc  (arbitrary order and MRCC methods)
  Frank Weinhold                                : gennbo (NPA and NBO analysis)           
  Simon Mueller                                 : openCOSMO-RS                            
  Christopher J. Cramer and Donald G. Truhlar   : smd solvation model                     
  S Lehtola, MJT Oliveira, MAL Marques          : LibXC Library                           
  Liviu Ungur et al                             : ANISO software                          


 Your calculation uses the libint2 library for the computation of 2-el integrals
 For citations please refer to: http://libint.valeyev.net

 Your ORCA version has been built with support for libXC version: 6.2.2
 For citations please refer to: https://libxc.gitlab.io

 This ORCA versions uses:
   CBLAS   interface :  Fast vector & matrix operations
   LAPACKE interface :  Fast linear algebra routines
   SCALAPACK package :  Parallel linear algebra routines
   Shared memory     :  Shared parallel matrices
   BLAS/LAPACK       :  OpenBLAS 0.3.27  USE64BITINT DYNAMIC_ARCH NO_AFFINITY Cooperlake SINGLE_THREADED
        Core in use  :  Cooperlake
   Copyright (c) 2011-2014, The OpenBLAS Project


NOTE: MaxCore=3600 MB was set to SCF,MP2,MDCI,CIPSI,MRCI and CIS
      => If you want to overwrite this, your respective input block should be placed after the MaxCore statement
Warning: RI is on but no J-basis has been assigned. Assigning Def2/J (nothing to worry about!)
================================================================================

----- Orbital basis set information -----
Your calculation utilizes the basis: def2-TZVP
   F. Weigend and R. Ahlrichs, Phys. Chem. Chem. Phys. 7, 3297 (2005).

----- AuxJ basis set information -----
Your calculation utilizes the auxiliary basis: def2/J
   F. Weigend, Phys. Chem. Chem. Phys. 8, 1057 (2006).

================================================================================
                                        WARNINGS
                       Please study these warnings very carefully!
================================================================================


WARNING: your system is open-shell and RHF/RKS was chosen
  ===> : WILL SWITCH to UHF/UKS


WARNING: Geometry Optimization
  ===> : Switching off AutoStart
         For restart on a previous wavefunction, please use MOREAD

================================================================================
                                       INPUT FILE
================================================================================
NAME = PIXXEE-S3.inp
|  1> ! PBE0 def2-TZVP  Opt Freq DEFGRID3
|  2> 
|  3> %maxcore 3600
|  4> 
|  5> %pal
|  6>     nprocs 16
|  7> end
|  8> 
|  9> *xyz 0 3
| 10> Cr 4.6195 2.5622 7.1578
| 11> N 6.1808 0.9092 8.2491
| 12> C 7.1241 1.3247 9.0977
| 13> C 7.8648 0.4398 9.8433
| 14> C 7.6509 -0.9011 9.6837
| 15> C 6.6827 -1.3561 8.8079
| 16> C 5.9718 -0.412 8.1107
| 17> C 4.8875 -0.7898 7.1278
| 18> C 4.1213 0.3671 6.6217
| 19> C 4.4153 1.1129 5.4729
| 20> C 3.5106 2.2087 5.3994
| 21> C 2.6549 2.1477 6.5041
| 22> C 3.0526 1.0097 7.2664
| 23> C 7.2952 2.8235 9.1859
| 24> C 6.234 3.5882 8.4635
| 25> C 6.3199 4.0226 7.1362
| 26> C 5.059 4.6042 6.7834
| 27> C 4.2062 4.501 7.9175
| 28> C 4.939 3.8494 8.936
| 29> H 8.5347 0.7647 10.4796
| 30> H 8.1887 -1.5419 10.194
| 31> H 6.5098 -2.3138 8.6945
| 32> H 4.2642 -1.4001 7.5751
| 33> H 5.3025 -1.2466 6.3676
| 34> H 5.1261 0.9172 4.8261
| 35> H 3.4874 2.8908 4.6959
| 36> H 1.9245 2.7661 6.712
| 37> H 2.6465 0.7225 8.1107
| 38> H 8.1633 3.0596 8.7974
| 39> H 7.2803 3.0838 10.131
| 40> H 7.1044 3.9463 6.5524
| 41> H 4.8249 5.0 5.9181
| 42> H 3.2821 4.8223 7.9847
| 43> H 4.5972 3.6178 9.8244
| 44> *
| 45> 
| 46>                          ****END OF INPUT****
================================================================================

                       *****************************
                       * Geometry Optimization Run *
                       *****************************

Geometry optimization settings:
Update method            Update   .... BFGS
Choice of coordinates    CoordSys .... (2022) Redundant Internals
Initial Hessian          InHess   .... Almloef's Model
Max. no of cycles        MaxIter  .... 102

Convergence Tolerances:
Energy Change            TolE     ....  5.0000e-06 Eh
Max. Gradient            TolMAXG  ....  3.0000e-04 Eh/bohr
RMS Gradient             TolRMSG  ....  1.0000e-04 Eh/bohr
Max. Displacement        TolMAXD  ....  4.0000e-03 bohr
RMS Displacement         TolRMSD  ....  2.0000e-03 bohr
Strict Convergence                .... False

------------------------------------------------------------------------------
                        ORCA OPTIMIZATION COORDINATE SETUP
------------------------------------------------------------------------------

The optimization will be done in redundant internal coordinates (2022)
Making redundant internal coordinates   ...  (2022 redundants) done
Evaluating the initial hessian          ...  (Almloef) done
Evaluating the coordinates              ...  done
Calculating the B-matrix                .... done
Calculating the G-matrix                .... done
Diagonalizing the G-matrix              .... done
The first mode is                       ....  356
The number of degrees of freedom        ....   96

    -----------------------------------------------------------------
                    Redundant Internal Coordinates


    -----------------------------------------------------------------
         Definition                    Initial Value    Approx d2E/dq
    -----------------------------------------------------------------
      1. B(N   1,Cr  0)                  2.5221         0.088471   
      2. B(C   2,N   1)                  1.3351         0.684564   
      3. B(C   3,C   2)                  1.3739         0.662863   
      4. B(C   4,C   3)                  1.3672         0.679381   
      5. B(C   5,C   4)                  1.3826         0.642118   
      6. B(C   6,N   1)                  1.3448         0.660751   
      7. B(C   6,C   5)                  1.3721         0.667144   
      8. B(C   7,C   6)                  1.5115         0.399895   
      9. B(C   8,C   7)                  1.4770         0.453824   
     10. B(C   8,Cr  0)                  2.3139         0.212257   
     11. B(C   9,C   8)                  1.4009         0.600371   
     12. B(C   9,Cr  0)                  2.2318         0.286933   
     13. B(C  10,C   9)                  1.4229         0.553655   
     14. B(C  10,Cr  0)                  2.1087         0.451058   
     15. B(C  11,Cr  0)                  2.1116         0.446295   
     16. B(C  11,C  10)                  1.3987         0.605188   
     17. B(C  12,C  11)                  1.4263         0.546809   
     18. B(C  12,C   8)                  1.4038         0.593882   
     19. B(C  12,Cr  0)                  2.2084         0.312671   
     20. B(C  13,C   2)                  1.5111         0.400418   
     21. B(C  14,C  13)                  1.4942         0.426010   
     22. B(C  14,Cr  0)                  2.3161         0.210568   
     23. B(C  15,C  14)                  1.3992         0.603996   
     24. B(C  15,Cr  0)                  2.2416         0.276855   
     25. B(C  16,C  15)                  1.4327         0.534112   
     26. B(C  16,Cr  0)                  2.1221         0.429460   
     27. B(C  17,C  16)                  1.4227         0.554056   
     28. B(C  17,Cr  0)                  2.1229         0.428048   
     29. B(C  18,C  17)                  1.4138         0.572422   
     30. B(C  18,C  14)                  1.4030         0.595583   
     31. B(C  18,Cr  0)                  2.2183         0.301527   
     32. B(H  19,C   3)                  0.9794         0.540624   
     33. B(H  20,C   4)                  0.9799         0.539555   
     34. B(H  21,C   5)                  0.9798         0.539875   
     35. B(H  22,C   7)                  0.9803         0.538760   
     36. B(H  23,C   7)                  0.9792         0.541038   
     37. B(H  24,C   9)                  0.9808         0.537914   
     38. B(H  25,C  10)                  0.9802         0.539098   
     39. B(H  26,C  11)                  0.9793         0.540704   
     40. B(H  27,C  12)                  0.9799         0.539571   
     41. B(H  28,C  13)                  0.9799         0.539541   
     42. B(H  29,C  13)                  0.9804         0.538613   
     43. B(H  30,C  15)                  0.9809         0.537713   
     44. B(H  31,C  16)                  0.9799         0.539610   
     45. B(H  32,C  17)                  0.9807         0.538090   
     46. B(H  33,C  18)                  0.9797         0.540100   
     47. A(N   1,Cr  0,C  18)           86.8069         0.339164   
     48. A(C  12,Cr  0,C  18)          118.0786         0.423859   
     49. A(C  16,Cr  0,C  18)           63.4633         0.448798   
     50. A(C  14,Cr  0,C  16)           61.8883         0.420715   
     51. A(C  12,Cr  0,C  14)          141.1035         0.397722   
     52. A(N   1,Cr  0,C  17)          124.3490         0.359811   
     53. A(C  11,Cr  0,C  12)           38.4743         0.454937   
     54. A(C  11,Cr  0,C  16)          109.0848         0.482191   
     55. A(C   8,Cr  0,C  11)           62.7246         0.424220   
     56. A(C  15,Cr  0,C  16)           38.2105         0.441913   
     57. A(N   1,Cr  0,C   9)           87.5752         0.336371   
     58. A(N   1,Cr  0,C  16)          125.3670         0.360013   
     59. A(C   8,Cr  0,C  17)          155.1442         0.421068   
     60. A(C   8,Cr  0,C  18)          140.1032         0.395751   
     61. A(C  15,Cr  0,C  17)           63.6491         0.441650   
     62. A(C   8,Cr  0,C   9)           35.8403         0.392326   
     63. A(C  11,Cr  0,C  17)           96.2533         0.481898   
     64. A(N   1,Cr  0,C  12)           87.5470         0.341227   
     65. A(C   9,Cr  0,C  11)           63.4928         0.447890   
     66. A(C  10,Cr  0,C  18)          147.2935         0.452816   
     67. A(C   8,Cr  0,C  12)           36.0733         0.398281   
     68. A(C  10,Cr  0,C  11)           38.7098         0.486582   
     69. A(C   8,Cr  0,C  14)          134.5039         0.371808   
     70. A(C   9,Cr  0,C  12)           61.0338         0.420120   
     71. A(C  10,Cr  0,C  16)           97.0713         0.483136   
     72. A(C  10,Cr  0,C  17)          110.4339         0.482843   
     73. A(C   9,Cr  0,C  17)          147.7142         0.444515   
     74. A(C  14,Cr  0,C  18)           35.9668         0.395197   
     75. A(C  10,Cr  0,C  14)          155.6369         0.424419   
     76. A(C  15,Cr  0,C  18)           61.3423         0.414764   
     77. A(C   9,Cr  0,C  15)          119.0261         0.411126   
     78. A(N   1,Cr  0,C  11)          125.5388         0.362381   
     79. A(C  16,Cr  0,C  17)           39.1632         0.478493   
     80. A(C   8,Cr  0,C  15)          141.1837         0.389881   
     81. A(C  14,Cr  0,C  15)           35.7103         0.389337   
     82. A(C  11,Cr  0,C  15)          146.1689         0.444998   
     83. A(N   1,Cr  0,C  10)          125.2035         0.363039   
     84. A(C   9,Cr  0,C  18)          174.3507         0.417411   
     85. A(C   8,Cr  0,C  10)           62.2601         0.425026   
     86. A(C   8,Cr  0,C  16)          156.4329         0.421315   
     87. A(C  11,Cr  0,C  14)          155.5125         0.423614   
     88. A(C  10,Cr  0,C  12)           63.2596         0.455817   
     89. A(N   1,Cr  0,C   8)           67.1560         0.320055   
     90. A(C  11,Cr  0,C  18)          119.7398         0.451943   
     91. A(C   9,Cr  0,C  16)          120.7061         0.444781   
     92. A(N   1,Cr  0,C  14)           67.3485         0.319638   
     93. A(C  10,Cr  0,C  15)          120.0064         0.445854   
     94. A(C   9,Cr  0,C  14)          140.9917         0.391778   
     95. A(C  14,Cr  0,C  17)           61.9268         0.420468   
     96. A(C  17,Cr  0,C  18)           37.9322         0.448530   
     97. A(N   1,Cr  0,C  15)           87.7980         0.334377   
     98. A(C  12,Cr  0,C  16)          146.3137         0.451766   
     99. A(C   9,Cr  0,C  10)           38.1397         0.448754   
    100. A(C  12,Cr  0,C  17)          119.0964         0.451495   
    101. A(C   2,N   1,C   6)          118.7488         0.441144   
    102. A(Cr  0,N   1,C   6)          120.2104         0.345565   
    103. A(Cr  0,N   1,C   2)          120.5588         0.347629   
    104. A(C   3,C   2,C  13)          123.1007         0.406319   
    105. A(N   1,C   2,C   3)          121.6945         0.444322   
    106. A(N   1,C   2,C  13)          115.1992         0.406011   
    107. A(C   4,C   3,H  19)          120.5446         0.384384   
    108. A(C   2,C   3,H  19)          120.5089         0.382743   
    109. A(C   2,C   3,C   4)          118.9464         0.446654   
    110. A(C   3,C   4,H  20)          119.6495         0.384252   
    111. A(C   5,C   4,H  20)          119.9342         0.380506   
    112. A(C   3,C   4,C   5)          120.4163         0.444090   
    113. A(C   6,C   5,H  21)          121.4874         0.383079   
    114. A(C   4,C   5,H  21)          121.2376         0.380545   
    115. A(C   4,C   5,C   6)          117.2743         0.442632   
    116. A(C   5,C   6,C   7)          122.0129         0.406688   
    117. A(N   1,C   6,C   7)          115.0871         0.403388   
    118. A(N   1,C   6,C   5)          122.8999         0.442000   
    119. A(C   8,C   7,H  23)          108.6169         0.358651   
    120. A(C   6,C   7,H  23)          108.5075         0.351039   
    121. A(C   8,C   7,H  22)          108.3087         0.358394   
    122. A(C   6,C   7,H  22)          108.3615         0.350789   
    123. A(C   6,C   7,C   8)          113.5269         0.380157   
    124. A(H  22,C   7,H  23)          109.4680         0.331452   
    125. A(Cr  0,C   8,C   7)          123.5025         0.380353   
    126. A(Cr  0,C   8,C   9)           68.8848         0.399404   
    127. A(C   9,C   8,C  12)          107.0188         0.428242   
    128. A(C   7,C   8,C  12)          126.5904         0.407421   
    129. A(Cr  0,C   8,C  12)           67.8678         0.398641   
    130. A(C   7,C   8,C   9)          126.0949         0.408205   
    131. A(C   8,C   9,H  24)          125.9231         0.375906   
    132. A(C  10,C   9,H  24)          125.4790         0.370694   
    133. A(Cr  0,C   9,H  24)          124.1349         0.369364   
    134. A(C   8,C   9,C  10)          108.5977         0.422899   
    135. A(Cr  0,C   9,C  10)           66.2388         0.415284   
    136. A(Cr  0,C   9,C   8)           75.2749         0.421322   
    137. A(C   9,C  10,H  25)          126.0189         0.370834   
    138. A(Cr  0,C  10,H  25)          119.6234         0.399744   
    139. A(Cr  0,C  10,C  11)           70.7568         0.457815   
    140. A(Cr  0,C  10,C   9)           75.6215         0.450460   
    141. A(C   9,C  10,C  11)          108.3366         0.423503   
    142. A(C  11,C  10,H  25)          125.6444         0.376569   
    143. A(C  12,C  11,H  26)          126.7487         0.370231   
    144. A(C  10,C  11,H  26)          126.6126         0.376762   
    145. A(Cr  0,C  11,H  26)          120.2795         0.399207   
    146. A(C  10,C  11,C  12)          106.6387         0.422563   
    147. A(Cr  0,C  11,C  12)           74.4391         0.448579   
    148. A(Cr  0,C  11,C  10)           70.5334         0.456930   
    149. A(C   8,C  12,H  27)          125.2413         0.375401   
    150. A(Cr  0,C  12,H  27)          122.8497         0.375067   
    151. A(C   8,C  12,C  11)          109.3932         0.421142   
    152. A(Cr  0,C  12,C  11)           67.0866         0.420755   
    153. A(Cr  0,C  12,C   8)           76.0589         0.427014   
    154. A(C  11,C  12,H  27)          125.3650         0.370097   
    155. A(C   2,C  13,C  14)          113.5133         0.376104   
    156. A(H  28,C  13,H  29)          109.3704         0.331285   
    157. A(C  14,C  13,H  29)          108.6253         0.354548   
    158. A(C   2,C  13,H  29)          108.5351         0.350851   
    159. A(C  14,C  13,H  28)          108.3108         0.354652   
    160. A(C   2,C  13,H  28)          108.4295         0.350953   
    161. A(C  13,C  14,C  15)          125.0218         0.404097   
    162. A(Cr  0,C  14,C  15)           69.2399         0.399266   
    163. A(Cr  0,C  14,C  13)          122.7456         0.375693   
    164. A(C  15,C  14,C  18)          108.5618         0.428924   
    165. A(C  13,C  14,C  18)          126.0128         0.403099   
    166. A(Cr  0,C  14,C  18)           68.2175         0.398282   
    167. A(Cr  0,C  15,C  14)           75.0498         0.419093   
    168. A(C  14,C  15,C  16)          107.7939         0.420645   
    169. A(Cr  0,C  15,C  16)           66.3739         0.410033   
    170. A(C  16,C  15,H  30)          126.0803         0.368388   
    171. A(C  14,C  15,H  30)          126.1252         0.376273   
    172. A(Cr  0,C  15,H  30)          124.1785         0.367080   
    173. A(C  15,C  16,C  17)          107.5659         0.414230   
    174. A(Cr  0,C  16,C  17)           70.4524         0.446527   
    175. A(Cr  0,C  16,C  15)           75.4156         0.443573   
    176. A(C  17,C  16,H  31)          126.1578         0.370941   
    177. A(C  15,C  16,H  31)          126.2762         0.368611   
    178. A(Cr  0,C  16,H  31)          119.6698         0.396378   
    179. A(C  16,C  17,C  18)          107.2771         0.419369   
    180. A(Cr  0,C  17,C  18)           74.6917         0.448907   
    181. A(Cr  0,C  17,C  16)           70.3843         0.446261   
    182. A(C  18,C  17,H  32)          126.1601         0.372848   
    183. A(C  16,C  17,H  32)          126.5626         0.370761   
    184. A(Cr  0,C  17,H  32)          120.4767         0.395953   
    185. A(C  14,C  18,C  17)          108.7594         0.424818   
    186. A(Cr  0,C  18,C  17)           67.3761         0.421468   
    187. A(Cr  0,C  18,C  14)           75.8157         0.424466   
    188. A(C  17,C  18,H  33)          125.5490         0.373088   
    189. A(C  14,C  18,H  33)          125.6916         0.375650   
    190. A(Cr  0,C  18,H  33)          122.6495         0.372790   
    191. D(C   6,N   1,Cr  0,C   8)     -4.4516         0.001558   
    192. D(C   2,N   1,Cr  0,C   9)    153.2227         0.001558   
    193. D(C   2,N   1,Cr  0,C  10)    159.8660         0.001558   
    194. D(C   2,N   1,Cr  0,C  16)     26.5891         0.001558   
    195. D(C   6,N   1,Cr  0,C   9)    -34.8423         0.001558   
    196. D(C   2,N   1,Cr  0,C  17)    -21.6089         0.001558   
    197. D(C   2,N   1,Cr  0,C  11)   -152.1730         0.001558   
    198. D(C   2,N   1,Cr  0,C  14)      3.8578         0.001558   
    199. D(C   2,N   1,Cr  0,C   8)   -176.3867         0.001558   
    200. D(C   2,N   1,Cr  0,C  18)    -27.3727         0.001558   
    201. D(C   2,N   1,Cr  0,C  12)   -145.6823         0.001558   
    202. D(C   2,N   1,Cr  0,C  15)     34.0378         0.001558   
    203. D(C  13,C   2,N   1,C   6)    179.7450         0.038610   
    204. D(C   3,C   2,N   1,Cr  0)    170.9549         0.038610   
    205. D(C   3,C   2,N   1,C   6)     -1.0964         0.038610   
    206. D(C  13,C   2,N   1,Cr  0)     -8.2037         0.038610   
    207. D(H  19,C   3,C   2,C  13)      0.8612         0.030680   
    208. D(C   4,C   3,C   2,C  13)   -179.1993         0.030680   
    209. D(H  19,C   3,C   2,N   1)   -178.2300         0.030680   
    210. D(C   4,C   3,C   2,N   1)      1.7095         0.030680   
    211. D(H  20,C   4,C   3,C   2)    178.4995         0.032349   
    212. D(C   5,C   4,C   3,H  19)    178.4681         0.032349   
    213. D(H  20,C   4,C   3,H  19)     -1.5610         0.032349   
    214. D(C   5,C   4,C   3,C   2)     -1.4714         0.032349   
    215. D(C   6,C   5,C   4,H  20)   -179.3054         0.028660   
    216. D(C   6,C   5,C   4,C   3)      0.6654         0.028660   
    217. D(H  21,C   5,C   4,H  20)      0.9893         0.028660   
    218. D(H  21,C   5,C   4,C   3)   -179.0398         0.028660   
    219. D(C   5,C   6,N   1,Cr  0)   -171.8264         0.035734   
    220. D(C   7,C   6,N   1,C   2)   -179.8944         0.035734   
    221. D(C   5,C   6,N   1,C   2)      0.2534         0.035734   
    222. D(C   7,C   6,N   1,Cr  0)      8.0259         0.035734   
    223. D(C   7,C   6,C   5,C   4)   -179.8851         0.031107   
    224. D(N   1,C   6,C   5,H  21)    179.6615         0.031107   
    225. D(C   7,C   6,C   5,H  21)     -0.1807         0.031107   
    226. D(N   1,C   6,C   5,C   4)     -0.0429         0.031107   
    227. D(H  23,C   7,C   6,N   1)    113.1602         0.011868   
    228. D(H  22,C   7,C   6,N   1)   -128.0620         0.011868   
    229. D(H  22,C   7,C   6,C   5)     51.7917         0.011868   
    230. D(C   8,C   7,C   6,N   1)     -7.6974         0.011868   
    231. D(C   8,C   7,C   6,C   5)    172.1563         0.011868   
    232. D(C   9,C   8,C   7,H  23)    -29.6755         0.016269   
    233. D(C   7,C   8,Cr  0,N   1)     -0.2057         0.001792   
    234. D(Cr  0,C   8,C   7,H  22)    124.4980         0.016269   
    235. D(C   9,C   8,C   7,H  22)   -148.4849         0.016269   
    236. D(C   9,C   8,C   7,C   6)     91.1206         0.016269   
    237. D(C   9,C   8,Cr  0,C  11)     81.7347         0.001792   
    238. D(C   9,C   8,Cr  0,N   1)   -120.3199         0.001792   
    239. D(C   9,C   8,Cr  0,C  10)     37.8545         0.001792   
    240. D(Cr  0,C   8,C   7,H  23)   -116.6926         0.016269   
    241. D(C   7,C   8,Cr  0,C   9)    120.1142         0.001792   
    242. D(C   7,C   8,Cr  0,C  16)    127.0327         0.001792   
    243. D(Cr  0,C   8,C   7,C   6)      4.1036         0.016269   
    244. D(C   7,C   8,Cr  0,C  18)    -53.4705         0.001792   
    245. D(C   7,C   8,Cr  0,C  10)    157.9687         0.001792   
    246. D(C   7,C   8,Cr  0,C  14)      0.1107         0.001792   
    247. D(C   7,C   8,Cr  0,C  12)   -120.1652         0.001792   
    248. D(C   7,C   8,Cr  0,C  15)     53.6261         0.001792   
    249. D(C   7,C   8,Cr  0,C  17)   -123.3814         0.001792   
    250. D(C   7,C   8,Cr  0,C  11)   -158.1511         0.001792   
    251. D(C   8,C   9,Cr  0,N   1)     52.7713         0.002025   
    252. D(C   8,C   9,Cr  0,C  11)    -79.3912         0.002025   
    253. D(C   8,C   9,Cr  0,C  10)   -118.4242         0.002025   
    254. D(C  10,C   9,C   8,C  12)     -0.8516         0.029011   
    255. D(C  10,C   9,C   8,C   7)   -174.9195         0.029011   
    256. D(C  10,C   9,C   8,Cr  0)    -58.1298         0.029011   
    257. D(Cr  0,C   9,C   8,C   7)   -116.7897         0.029011   
    258. D(C  10,C   9,Cr  0,C  12)     82.6581         0.002025   
    259. D(C  10,C   9,Cr  0,C  11)     39.0330         0.002025   
    260. D(C  10,C   9,Cr  0,N   1)    171.1955         0.002025   
    261. D(C   8,C   9,Cr  0,C  17)   -135.2326         0.002025   
    262. D(C   8,C   9,Cr  0,C  18)     46.7217         0.002025   
    263. D(C   8,C   9,Cr  0,C  16)   -176.7889         0.002025   
    264. D(Cr  0,C   9,C   8,C  12)     57.2782         0.029011   
    265. D(C   8,C   9,Cr  0,C  15)    138.9021         0.002025   
    266. D(C  10,C   9,Cr  0,C   8)    118.4242         0.002025   
    267. D(C   8,C   9,Cr  0,C  14)    101.1130         0.002025   
    268. D(H  24,C   9,C   8,Cr  0)    121.7397         0.029011   
    269. D(C   8,C   9,Cr  0,C  12)    -35.7661         0.002025   
    270. D(C  11,C  10,C   9,H  24)   -179.7274         0.024450   
    271. D(C  11,C  10,C   9,C   8)      0.1428         0.024450   
    272. D(C  11,C  10,Cr  0,C   9)    115.6887         0.002779   
    273. D(Cr  0,C  10,C   9,C   8)     63.8218         0.024450   
    274. D(C  11,C  10,Cr  0,C  12)     39.3654         0.002779   
    275. D(C  11,C  10,Cr  0,C   8)     80.1108         0.002779   
    276. D(C  11,C  10,Cr  0,N   1)    104.9018         0.002779   
    277. D(C   9,C  10,Cr  0,C  18)   -177.3231         0.002779   
    278. D(Cr  0,C  10,C   9,H  24)   -116.0484         0.024450   
    279. D(C   9,C  10,Cr  0,C  17)    170.5126         0.002779   
    280. D(C  11,C  10,C   9,Cr  0)    -63.6790         0.024450   
    281. D(C   9,C  10,Cr  0,C  16)    132.4687         0.002779   
    282. D(C   9,C  10,Cr  0,C  15)     99.8922         0.002779   
    283. D(C   9,C  10,Cr  0,C  14)    103.7577         0.002779   
    284. D(C   9,C  10,Cr  0,C   8)    -35.5779         0.002779   
    285. D(C   9,C  10,Cr  0,N   1)    -10.7869         0.002779   
    286. D(C   9,C  10,Cr  0,C  12)    -76.3234         0.002779   
    287. D(C   9,C  10,Cr  0,C  11)   -115.6887         0.002779   
    288. D(H  25,C  10,C   9,Cr  0)    116.3919         0.024450   
    289. D(C  12,C  11,C  10,H  25)   -179.4583         0.029508   
    290. D(C  12,C  11,C  10,C   9)      0.6123         0.029508   
    291. D(C  12,C  11,C  10,Cr  0)    -66.2596         0.029508   
    292. D(Cr  0,C  11,C  10,H  25)   -113.1986         0.029508   
    293. D(Cr  0,C  11,C  10,C   9)     66.8719         0.029508   
    294. D(C  12,C  11,Cr  0,C   9)     75.9798         0.002752   
    295. D(C  12,C  11,Cr  0,N   1)     10.4587         0.002752   
    296. D(H  26,C  11,C  10,Cr  0)    113.8050         0.029508   
    297. D(C  10,C  11,Cr  0,C  16)     77.0906         0.002752   
    298. D(C  10,C  11,Cr  0,C  15)     64.8259         0.002752   
    299. D(C  10,C  11,Cr  0,C  14)    140.7780         0.002752   
    300. D(C  12,C  11,Cr  0,C  10)    114.4362         0.002752   
    301. D(C  10,C  11,Cr  0,C  12)   -114.4362         0.002752   
    302. D(C  10,C  11,Cr  0,C  18)    146.7986         0.002752   
    303. D(C  10,C  11,Cr  0,C   9)    -38.4564         0.002752   
    304. D(C  10,C  11,Cr  0,C   8)    -78.8108         0.002752   
    305. D(C  12,C  11,Cr  0,C   8)     35.6254         0.002752   
    306. D(C  10,C  11,Cr  0,C  17)    115.1433         0.002752   
    307. D(C  10,C  11,Cr  0,N   1)   -103.9775         0.002752   
    308. D(C   8,C  12,Cr  0,C  17)    178.4535         0.002121   
    309. D(C   8,C  12,Cr  0,C  16)    138.3540         0.002121   
    310. D(C   8,C  12,Cr  0,C  18)   -138.1136         0.002121   
    311. D(C   8,C  12,Cr  0,C  14)   -101.2136         0.002121   
    312. D(C   8,C  12,Cr  0,C  11)    118.4481         0.002121   
    313. D(C   8,C  12,Cr  0,C  10)     78.8397         0.002121   
    314. D(C  11,C  12,Cr  0,N   1)   -171.4978         0.002121   
    315. D(C  11,C  12,Cr  0,C   8)   -118.4481         0.002121   
    316. D(C   8,C  12,Cr  0,C   9)     35.5357         0.002121   
    317. D(C   8,C  12,Cr  0,N   1)    -53.0497         0.002121   
    318. D(H  27,C  12,C  11,C  10)    178.5936         0.023822   
    319. D(H  27,C  12,C  11,Cr  0)    114.9706         0.023822   
    320. D(C   8,C  12,C  11,C  10)     -1.1570         0.023822   
    321. D(C   8,C  12,C  11,Cr  0)    -64.7801         0.023822   
    322. D(Cr  0,C  12,C  11,H  26)   -116.4416         0.023822   
    323. D(Cr  0,C  12,C  11,C  10)     63.6231         0.023822   
    324. D(H  27,C  12,C   8,C   7)     -4.4764         0.028348   
    325. D(H  27,C  12,C   8,Cr  0)   -120.5929         0.028348   
    326. D(C  11,C  12,C   8,C   9)      1.2448         0.028348   
    327. D(C  11,C  12,C   8,C   7)    175.2746         0.028348   
    328. D(C  11,C  12,C   8,Cr  0)     59.1581         0.028348   
    329. D(Cr  0,C  12,C   8,C   9)    -57.9133         0.028348   
    330. D(Cr  0,C  12,C   8,C   7)    116.1165         0.028348   
    331. D(C  11,C  12,Cr  0,C  16)     19.9058         0.002121   
    332. D(C   8,C  12,C  11,H  26)    178.7783         0.023822   
    333. D(C  11,C  12,Cr  0,C  14)    140.3382         0.002121   
    334. D(C  11,C  12,Cr  0,C  10)    -39.6085         0.002121   
    335. D(C  11,C  12,Cr  0,C   9)    -82.9124         0.002121   
    336. D(H  29,C  13,C   2,N   1)    129.8086         0.011898   
    337. D(H  28,C  13,C   2,C   3)     69.3782         0.011898   
    338. D(H  28,C  13,C   2,N   1)   -111.4764         0.011898   
    339. D(C  14,C  13,C   2,C   3)   -170.2158         0.011898   
    340. D(C  14,C  13,C   2,N   1)      8.9296         0.011898   
    341. D(C  15,C  14,C  13,H  29)    146.8398         0.014351   
    342. D(C  15,C  14,C  13,H  28)     28.1412         0.014351   
    343. D(Cr  0,C  14,C  13,H  29)   -126.8256         0.014351   
    344. D(Cr  0,C  14,C  13,H  28)    114.4758         0.014351   
    345. D(Cr  0,C  14,C  13,C   2)     -5.9973         0.014351   
    346. D(C  15,C  14,Cr  0,C   9)     66.6278         0.001788   
    347. D(C  15,C  14,Cr  0,C   8)    120.2951         0.001788   
    348. D(C  15,C  14,Cr  0,N   1)    120.6110         0.001788   
    349. D(C  13,C  14,Cr  0,C  18)    119.7234         0.001788   
    350. D(C  13,C  14,Cr  0,C  17)    157.8139         0.001788   
    351. D(C  13,C  14,Cr  0,C  16)   -157.5303         0.001788   
    352. D(C  13,C  14,Cr  0,C  15)   -119.0725         0.001788   
    353. D(C  13,C  14,Cr  0,C  12)     55.3027         0.001788   
    354. D(C  13,C  14,Cr  0,C  11)    128.6440         0.001788   
    355. D(C  13,C  14,Cr  0,C  10)   -124.8127         0.001788   
    356. D(C  15,C  14,C  13,C   2)    -92.3319         0.014351   
    357. D(C  13,C  14,Cr  0,C   9)    -52.4447         0.001788   
    358. D(C  13,C  14,Cr  0,C   8)      1.2226         0.001788   
    359. D(C  13,C  14,Cr  0,N   1)      1.5385         0.001788   
    360. D(H  30,C  15,C  14,C  13)     -5.5160         0.029385   
    361. D(H  30,C  15,C  14,Cr  0)   -121.6663         0.029385   
    362. D(C  16,C  15,C  14,C  18)      1.6647         0.029385   
    363. D(C  16,C  15,C  14,C  13)    174.7276         0.029385   
    364. D(C  16,C  15,C  14,Cr  0)     58.5774         0.029385   
    365. D(Cr  0,C  15,C  14,C  18)    -56.9127         0.029385   
    366. D(Cr  0,C  15,C  14,C  13)    116.1502         0.029385   
    367. D(H  30,C  15,C  12,C   8)     16.1051         0.001500   
    368. D(C  16,C  15,C  12,H  27)   -101.5992         0.001500   
    369. D(C  16,C  15,C  12,C  11)     18.0417         0.001500   
    370. D(C  14,C  15,C  12,H  27)     15.6437         0.001500   
    371. D(C  14,C  15,C  12,C  11)    135.2846         0.001500   
    372. D(C  14,C  15,C  12,C   8)   -106.6965         0.001500   
    373. D(C  16,C  15,Cr  0,C  14)   -117.5189         0.001990   
    374. D(C  16,C  15,Cr  0,C  11)     18.9385         0.001990   
    375. D(C  16,C  15,Cr  0,C  10)     59.7502         0.001990   
    376. D(C  16,C  15,C  12,C   8)    136.0605         0.001500   
    377. D(C  16,C  15,Cr  0,C   9)    103.8406         0.001990   
    378. D(C  16,C  15,Cr  0,C   8)    141.7228         0.001990   
    379. D(C  16,C  15,Cr  0,N   1)   -170.1595         0.001990   
    380. D(H  30,C  15,C  12,C  11)   -101.9138         0.001500   
    381. D(C  14,C  15,Cr  0,C  18)     34.9230         0.001990   
    382. D(C  14,C  15,Cr  0,C  17)     77.8384         0.001990   
    383. D(C  14,C  15,Cr  0,C  16)    117.5189         0.001990   
    384. D(C  14,C  15,Cr  0,C  11)    136.4573         0.001990   
    385. D(C  14,C  15,Cr  0,C  10)    177.2691         0.001990   
    386. D(C  14,C  15,Cr  0,C   9)   -138.6406         0.001990   
    387. D(C  14,C  15,Cr  0,C   8)   -100.7583         0.001990   
    388. D(C  14,C  15,Cr  0,N   1)    -52.6406         0.001990   
    389. D(H  31,C  16,C  15,C  14)    179.5296         0.022684   
    390. D(H  31,C  16,C  15,Cr  0)   -116.3271         0.022684   
    391. D(C  17,C  16,C  15,H  30)    179.6763         0.022684   
    392. D(C  17,C  16,C  15,Cr  0)     63.5762         0.022684   
    393. D(Cr  0,C  16,C  15,H  30)    116.1001         0.022684   
    394. D(Cr  0,C  16,C  15,C  14)    -64.1434         0.022684   
    395. D(C  17,C  16,Cr  0,C  10)    113.8763         0.002660   
    396. D(C  17,C  16,Cr  0,C   9)    145.8710         0.002660   
    397. D(C  17,C  16,Cr  0,C   8)    141.1656         0.002660   
    398. D(C  17,C  16,Cr  0,N   1)   -102.9546         0.002660   
    399. D(C  15,C  16,Cr  0,C  18)     76.5699         0.002660   
    400. D(C  15,C  16,Cr  0,C  17)    115.0435         0.002660   
    401. D(C  15,C  16,Cr  0,C  14)     35.9360         0.002660   
    402. D(C  15,C  16,Cr  0,C  12)    178.0700         0.002660   
    403. D(C  15,C  16,Cr  0,C  11)   -168.9770         0.002660   
    404. D(C  17,C  16,C  15,C  14)     -0.5671         0.022684   
    405. D(C  15,C  16,Cr  0,C  10)   -131.0802         0.002660   
    406. D(C  15,C  16,Cr  0,C   9)    -99.0855         0.002660   
    407. D(C  15,C  16,Cr  0,C   8)   -103.7909         0.002660   
    408. D(C  15,C  16,Cr  0,N   1)     12.0888         0.002660   
    409. D(H  32,C  17,C  16,Cr  0)   -113.9562         0.024488   
    410. D(C  18,C  17,C  16,H  31)    179.1727         0.024488   
    411. D(C  18,C  17,C  16,Cr  0)     66.1483         0.024488   
    412. D(Cr  0,C  17,C  16,H  31)    113.0244         0.024488   
    413. D(Cr  0,C  17,C  16,C  15)    -66.8791         0.024488   
    414. D(C  18,C  17,Cr  0,C   9)   -179.6871         0.002653   
    415. D(C  18,C  17,Cr  0,C   8)    101.5020         0.002653   
    416. D(C  18,C  17,Cr  0,N   1)     -9.3877         0.002653   
    417. D(C  16,C  17,Cr  0,C  18)    115.1154         0.002653   
    418. D(C  16,C  17,Cr  0,C  15)     38.7103         0.002653   
    419. D(C  16,C  17,Cr  0,C  14)     79.0013         0.002653   
    420. D(C  18,C  17,Cr  0,C  10)    169.3263         0.002653   
    421. D(C  16,C  17,Cr  0,C  12)   -145.5492         0.002653   
    422. D(C  16,C  17,Cr  0,C  11)   -112.7249         0.002653   
    423. D(C  16,C  17,Cr  0,C  10)    -75.5583         0.002653   
    424. D(C  18,C  17,C  16,C  15)     -0.7308         0.024488   
    425. D(C  16,C  17,Cr  0,C   9)    -64.5717         0.002653   
    426. D(C  16,C  17,Cr  0,C   8)   -143.3826         0.002653   
    427. D(C  16,C  17,Cr  0,N   1)    105.7277         0.002653   
    428. D(C  17,C  18,C  14,C  13)   -175.1221         0.028521   
    429. D(C  17,C  18,C  14,Cr  0)    -59.6766         0.028521   
    430. D(Cr  0,C  18,C  14,C  15)     57.5308         0.028521   
    431. D(C  17,C  18,Cr  0,C  10)    -18.7362         0.002079   
    432. D(C  17,C  18,Cr  0,C   9)    178.3019         0.002079   
    433. D(C  17,C  18,Cr  0,C   8)   -140.0459         0.002079   
    434. D(C  17,C  18,Cr  0,N   1)    172.2484         0.002079   
    435. D(C  14,C  18,Cr  0,C  17)   -117.6903         0.002079   
    436. D(C  14,C  18,Cr  0,C  16)    -77.9611         0.002079   
    437. D(C  14,C  18,Cr  0,C  15)    -34.6762         0.002079   
    438. D(C  14,C  18,Cr  0,C  12)    140.0645         0.002079   
    439. D(C  14,C  18,Cr  0,C  11)   -175.7549         0.002079   
    440. D(Cr  0,C  18,C  14,C  13)   -115.4455         0.028521   
    441. D(C  14,C  18,Cr  0,C  10)   -136.4265         0.002079   
    442. D(C  14,C  18,Cr  0,C   9)     60.6116         0.002079   
    443. D(C  14,C  18,Cr  0,C   8)    102.2638         0.002079   
    444. D(C  17,C  18,C  14,C  15)     -2.1458         0.028521   
    445. D(C  14,C  18,Cr  0,N   1)     54.5580         0.002079   
    446. D(H  33,C  18,C  17,Cr  0)   -114.8700         0.026225   
    447. D(C  14,C  18,C  17,H  32)   -178.1303         0.026225   
    448. D(C  14,C  18,C  17,C  16)      1.7657         0.026225   
    449. D(C  14,C  18,C  17,Cr  0)     65.0450         0.026225   
    450. D(Cr  0,C  18,C  17,H  32)    116.8247         0.026225   
    451. D(Cr  0,C  18,C  17,C  16)    -63.2793         0.026225   
    452. D(H  33,C  18,C  14,Cr  0)    120.2382         0.028521   
    -----------------------------------------------------------------

Number of atoms                         .... 34
Number of degrees of freedom            .... 452


         *************************************************************
         *                GEOMETRY OPTIMIZATION CYCLE   1            *
         *************************************************************
---------------------------------
CARTESIAN COORDINATES (ANGSTROEM)
---------------------------------
  Cr     4.619500    2.562200    7.157800
  N      6.180800    0.909200    8.249100
  C      7.124100    1.324700    9.097700
  C      7.864800    0.439800    9.843300
  C      7.650900   -0.901100    9.683700
  C      6.682700   -1.356100    8.807900
  C      5.971800   -0.412000    8.110700
  C      4.887500   -0.789800    7.127800
  C      4.121300    0.367100    6.621700
  C      4.415300    1.112900    5.472900
  C      3.510600    2.208700    5.399400
  C      2.654900    2.147700    6.504100
  C      3.052600    1.009700    7.266400
  C      7.295200    2.823500    9.185900
  C      6.234000    3.588200    8.463500
  C      6.319900    4.022600    7.136200
  C      5.059000    4.604200    6.783400
  C      4.206200    4.501000    7.917500
  C      4.939000    3.849400    8.936000
  H      8.534700    0.764700   10.479600
  H      8.188700   -1.541900   10.194000
  H      6.509800   -2.313800    8.694500
  H      4.264200   -1.400100    7.575100
  H      5.302500   -1.246600    6.367600
  H      5.126100    0.917200    4.826100
  H      3.487400    2.890800    4.695900
  H      1.924500    2.766100    6.712000
  H      2.646500    0.722500    8.110700
  H      8.163300    3.059600    8.797400
  H      7.280300    3.083800   10.131000
  H      7.104400    3.946300    6.552400
  H      4.824900    5.000000    5.918100
  H      3.282100    4.822300    7.984700
  H      4.597200    3.617800    9.824400

----------------------------
CARTESIAN COORDINATES (A.U.)
----------------------------
  NO LB      ZA    FRAG     MASS         X           Y           Z
   0 Cr   24.0000    0    52.000    8.729590    4.841856   13.526282
   1 N     7.0000    0    14.007   11.680019    1.718139   15.588540
   2 C     6.0000    0    12.011   13.462598    2.503320   17.192161
   3 C     6.0000    0    12.011   14.862318    0.831102   18.601141
   4 C     6.0000    0    12.011   14.458106   -1.702832   18.299541
   5 C     6.0000    0    12.011   12.628473   -2.562658   16.644519
   6 C     6.0000    0    12.011   11.285067   -0.778567   15.327002
   7 C     6.0000    0    12.011    9.236036   -1.492506   13.469590
   8 C     6.0000    0    12.011    7.788128    0.693718   12.513200
   9 C     6.0000    0    12.011    8.343708    2.103076   10.342282
  10 C     6.0000    0    12.011    6.634073    4.173838   10.203387
  11 C     6.0000    0    12.011    5.017034    4.058565   12.290968
  12 C     6.0000    0    12.011    5.768578    1.908056   13.731506
  13 C     6.0000    0    12.011   13.785930    5.335642   17.358835
  14 C     6.0000    0    12.011   11.780553    6.780715   15.993697
  15 C     6.0000    0    12.011   11.942880    7.601612   13.485464
  16 C     6.0000    0    12.011    9.560125    8.700677   12.818768
  17 C     6.0000    0    12.011    7.948566    8.505657   14.961907
  18 C     6.0000    0    12.011    9.333357    7.274312   16.886593
  19 H     1.0000    0     1.008   16.128246    1.445074   19.803574
  20 H     1.0000    0     1.008   15.474400   -2.913769   19.263868
  21 H     1.0000    0     1.008   12.301739   -4.372448   16.430224
  22 H     1.0000    0     1.008    8.058170   -2.645806   14.314864
  23 H     1.0000    0     1.008   10.020273   -2.355733   12.033020
  24 H     1.0000    0     1.008    9.686925    1.733257    9.120007
  25 H     1.0000    0     1.008    6.590231    5.462820    8.873965
  26 H     1.0000    0     1.008    3.636778    5.227171   12.683842
  27 H     1.0000    0     1.008    5.001160    1.365327   15.327002
  28 H     1.0000    0     1.008   15.426401    5.781806   16.624677
  29 H     1.0000    0     1.008   13.757773    5.827537   19.144815
  30 H     1.0000    0     1.008   13.425370    7.457426   12.382242
  31 H     1.0000    0     1.008    9.117740    9.448631   11.183588
  32 H     1.0000    0     1.008    6.202270    9.112826   15.088896
  33 H     1.0000    0     1.008    8.687449    6.836651   18.565425

--------------------------------
INTERNAL COORDINATES (ANGSTROEM)
--------------------------------
 Cr     0   0   0     0.000000000000     0.00000000     0.00000000
 N      1   0   0     2.522102769516     0.00000000     0.00000000
 C      2   1   0     1.335131866147   120.55878384     0.00000000
 C      3   2   1     1.373900964408   121.69447127   170.95487805
 C      4   3   2     1.367200855763   118.94641852     1.70953871
 C      5   4   3     1.382556284569   120.41630351   358.52857796
 C      2   1   3     1.344769496977   120.21035902   171.93504245
 C      7   2   1     1.511466751206   115.08706815     8.02588677
 C      8   7   2     1.477029877829   113.52685759   352.30255734
 C      9   8   7     1.400855124558   126.09492268    91.12064955
 C     10   9   8     1.422906173997   108.59774672   185.08054055
 C     11  10   9     1.398679941945   108.33662733     0.14282325
 C      9   8   7     1.403813570244   126.59043481   278.19067811
 C      3   2   1     1.511110813276   115.19915632   351.79627488
 C     14   3   2     1.494246729961   113.51330906     8.92962507
 C     15  14   3     1.399216730889   125.02177598   267.66809255
 C     16  15  14     1.432688106323   107.79392965   174.72759613
 C     17  16  15     1.422708996949   107.56590975   359.43287557
 C     15  14   3     1.403034814251   126.01282121    79.53064724
 H      4   3   2     0.979389457775   120.50892732   181.77000614
 H      5   4   3     0.979928349422   119.64951245   178.49952837
 H      6   5   4     0.979766941675   121.23761166   180.96021323
 H      8   7   2     0.980329674140   108.36153135   231.93800632
 H      8   7   2     0.979180923017   108.50752858   113.16022793
 H     10   9   8     0.980757549041   125.92314201     4.95000926
 H     11  10   9     0.980158609614   126.01893383   180.21373105
 H     12  11  10     0.979349340123   126.61257807   180.67688950
 H     13   9   8     0.979920170218   125.24128281   355.52357422
 H     14   3   2     0.979935237656   108.42947320   248.52358930
 H     14   3   2     0.980404054459   108.53505481   129.80864054
 H     16  15  14     0.980859001080   126.12523193   354.48398273
 H     17  16  15     0.979900270436   126.27618073   179.52957887
 H     18  17  16     0.980668312938   126.56264395   179.16469518
 H     19  15  14     0.979653183530   125.69158040     4.79274452

---------------------------
INTERNAL COORDINATES (A.U.)
---------------------------
 Cr     0   0   0     0.000000000000     0.00000000     0.00000000
 N      1   0   0     4.766083515989     0.00000000     0.00000000
 C      2   1   0     2.523033579688   120.55878384     0.00000000
 C      3   2   1     2.596296557861   121.69447127   170.95487805
 C      4   3   2     2.583635187455   118.94641852     1.70953871
 C      5   4   3     2.612652742566   120.41630351   358.52857796
 C      2   1   3     2.541246062538   120.21035902   171.93504245
 C      7   2   1     2.856258220306   115.08706815     8.02588677
 C      8   7   2     2.791181960716   113.52685759   352.30255734
 C      9   8   7     2.647232538714   126.09492268    91.12064955
 C     10   9   8     2.688902983121   108.59774672   185.08054055
 C     11  10   9     2.643122039285   108.33662733     0.14282325
 C      9   8   7     2.652823190843   126.59043481   278.19067811
 C      3   2   1     2.855585595099   115.19915632   351.79627488
 C     14   3   2     2.823717096134   113.51330906     8.92962507
 C     15  14   3     2.644136423381   125.02177598   267.66809255
 C     16  15  14     2.707388156277   107.79392965   174.72759613
 C     17  16  15     2.688530372500   107.56590975   359.43287557
 C     15  14   3     2.651351555291   126.01282121    79.53064724
 H      4   3   2     1.850777853644   120.50892732   181.77000614
 H      5   4   3     1.851796211272   119.64951245   178.49952837
 H      6   5   4     1.851491194836   121.23761166   180.96021323
 H      8   7   2     1.852554605081   108.36153135   231.93800632
 H      8   7   2     1.850383780062   108.50752858   113.16022793
 H     10   9   8     1.853363171462   125.92314201     4.95000926
 H     11  10   9     1.852231339975   126.01893383   180.21373105
 H     12  11  10     1.850702042270   126.61257807   180.67688950
 H     13   9   8     1.851780754817   125.24128281   355.52357422
 H     14   3   2     1.851809228149   108.42947320   248.52358930
 H     14   3   2     1.852695163514   108.53505481   129.80864054
 H     16  15  14     1.853554888033   126.12523193   354.48398273
 H     17  16  15     1.851743149679   126.27618073   179.52957887
 H     18  17  16     1.853194539667   126.56264395   179.16469518
 H     19  15  14     1.851276223095   125.69158040     4.79274452

---------------------
BASIS SET INFORMATION
---------------------
There are 4 groups of distinct atoms

 Group   1 Type Cr  : 17s11p7d1f contracted to 6s4p4d1f pattern {842111/6311/4111/1}
 Group   2 Type N   : 11s6p2d1f contracted to 5s3p2d1f pattern {62111/411/11/1}
 Group   3 Type C   : 11s6p2d1f contracted to 5s3p2d1f pattern {62111/411/11/1}
 Group   4 Type H   : 5s1p contracted to 3s1p pattern {311/1}

Atom   0Cr   basis set group =>   1
Atom   1N    basis set group =>   2
Atom   2C    basis set group =>   3
Atom   3C    basis set group =>   3
Atom   4C    basis set group =>   3
Atom   5C    basis set group =>   3
Atom   6C    basis set group =>   3
Atom   7C    basis set group =>   3
Atom   8C    basis set group =>   3
Atom   9C    basis set group =>   3
Atom  10C    basis set group =>   3
Atom  11C    basis set group =>   3
Atom  12C    basis set group =>   3
Atom  13C    basis set group =>   3
Atom  14C    basis set group =>   3
Atom  15C    basis set group =>   3
Atom  16C    basis set group =>   3
Atom  17C    basis set group =>   3
Atom  18C    basis set group =>   3
Atom  19H    basis set group =>   4
Atom  20H    basis set group =>   4
Atom  21H    basis set group =>   4
Atom  22H    basis set group =>   4
Atom  23H    basis set group =>   4
Atom  24H    basis set group =>   4
Atom  25H    basis set group =>   4
Atom  26H    basis set group =>   4
Atom  27H    basis set group =>   4
Atom  28H    basis set group =>   4
Atom  29H    basis set group =>   4
Atom  30H    basis set group =>   4
Atom  31H    basis set group =>   4
Atom  32H    basis set group =>   4
Atom  33H    basis set group =>   4
---------------------------------
AUXILIARY/J BASIS SET INFORMATION
---------------------------------
There are 4 groups of distinct atoms

 Group   1 Type Cr  : 19s5p5d3f3g contracted to 8s5p5d2f3g pattern {121111111/11111/11111/21/111}
 Group   2 Type N   : 12s5p4d2f1g contracted to 6s4p3d1f1g pattern {711111/2111/211/2/1}
 Group   3 Type C   : 12s5p4d2f1g contracted to 6s4p3d1f1g pattern {711111/2111/211/2/1}
 Group   4 Type H   : 5s2p1d contracted to 3s1p1d pattern {311/2/1}

Atom   0Cr   basis set group =>   1
Atom   1N    basis set group =>   2
Atom   2C    basis set group =>   3
Atom   3C    basis set group =>   3
Atom   4C    basis set group =>   3
Atom   5C    basis set group =>   3
Atom   6C    basis set group =>   3
Atom   7C    basis set group =>   3
Atom   8C    basis set group =>   3
Atom   9C    basis set group =>   3
Atom  10C    basis set group =>   3
Atom  11C    basis set group =>   3
Atom  12C    basis set group =>   3
Atom  13C    basis set group =>   3
Atom  14C    basis set group =>   3
Atom  15C    basis set group =>   3
Atom  16C    basis set group =>   3
Atom  17C    basis set group =>   3
Atom  18C    basis set group =>   3
Atom  19H    basis set group =>   4
Atom  20H    basis set group =>   4
Atom  21H    basis set group =>   4
Atom  22H    basis set group =>   4
Atom  23H    basis set group =>   4
Atom  24H    basis set group =>   4
Atom  25H    basis set group =>   4
Atom  26H    basis set group =>   4
Atom  27H    basis set group =>   4
Atom  28H    basis set group =>   4
Atom  29H    basis set group =>   4
Atom  30H    basis set group =>   4
Atom  31H    basis set group =>   4
Atom  32H    basis set group =>   4
Atom  33H    basis set group =>   4


           ************************************************************
           *        Program running with 16 parallel MPI-processes    *
           *              working on a common directory               *
           ************************************************************
------------------------------------------------------------------------------
                             ORCA STARTUP CALCULATIONS
                           -- RI-GTO INTEGRALS CHOSEN --
------------------------------------------------------------------------------
------------------------------------------------------------------------------
                   ___                                                        
                  /   \      - P O W E R E D   B Y -                         
                 /     \                                                     
                 |  |  |   _    _      __       _____    __    __             
                 |  |  |  | |  | |    /  \     |  _  \  |  |  /  |          
                  \  \/   | |  | |   /    \    | | | |  |  | /  /          
                 / \  \   | |__| |  /  /\  \   | |_| |  |  |/  /          
                |  |  |   |  __  | /  /__\  \  |    /   |      \           
                |  |  |   | |  | | |   __   |  |    \   |  |\   \          
                \     /   | |  | | |  |  |  |  | |\  \  |  | \   \       
                 \___/    |_|  |_| |__|  |__|  |_| \__\ |__|  \__/        
                                                                              
                      - O R C A' S   B I G   F R I E N D -                    
                                      &                                       
                       - I N T E G R A L  F E E D E R -                       
                                                                              
 v1 FN, 2020, v2 2021, v3 2022-2024                                           
------------------------------------------------------------------------------


----------------------
SHARK INTEGRAL PACKAGE
----------------------

Number of atoms                             ...     34
Number of basis functions                   ...    693
Number of shells                            ...    273
Maximum angular momentum                    ...      3
Integral batch strategy                     ... SHARK/LIBINT Hybrid
RI-J (if used) integral strategy            ... SPLIT-RIJ (Revised 2003 algorithm where possible)
Printlevel                                  ...      1
Contraction scheme used                     ... SEGMENTED contraction
Prescreening option                         ... SCHWARTZ
   Thresh                                   ... 2.500e-11
   Tcut                                     ... 2.500e-12
   Tpresel                                  ... 2.500e-12 
Coulomb Range Separation                    ... NOT USED
Exchange Range Separation                   ... NOT USED
Multipole approximations                    ... NOT USED
Finite Nucleus Model                        ... NOT USED
CABS basis                                  ... NOT available
Auxiliary Coulomb fitting basis             ... AVAILABLE
   # of basis functions in Aux-J            ...   1136
   # of shells in Aux-J                     ...    368
   Maximum angular momentum in Aux-J        ...      4
Auxiliary J/K fitting basis                 ... NOT available
Auxiliary Correlation fitting basis         ... NOT available
Auxiliary 'external' fitting basis          ... NOT available

Checking pre-screening integrals            ... done (  0.0 sec) Dimension = 273
Check shell pair data                       ... done (  0.0 sec)
Shell pair information
Shell pair cut-off parameter TPreSel        ...   2.5e-12
Total number of shell pairs                 ...     37401
Shell pairs after pre-screening             ...     30929
Total number of primitive shell pairs       ...    118841
Primitive shell pairs kept                  ...     66732
          la=0 lb=0:   7858 shell pairs
          la=1 lb=0:   8598 shell pairs
          la=1 lb=1:   2389 shell pairs
          la=2 lb=0:   4666 shell pairs
          la=2 lb=1:   2588 shell pairs
          la=2 lb=2:    728 shell pairs
          la=3 lb=0:   2085 shell pairs
          la=3 lb=1:   1196 shell pairs
          la=3 lb=2:    662 shell pairs
          la=3 lb=3:    159 shell pairs

Calculating one electron integrals          ... done (  0.0 sec)
done (  0.1 sec)
Calculating Nuclear repulsion               ... done (  0.0 sec) ENN=   1817.398223766494 Eh

Diagonalization of the overlap matrix:
Smallest eigenvalue                        ... 1.590e-05
Time for diagonalization                   ...    0.071 sec
Threshold for overlap eigenvalues          ... 1.000e-07
Number of eigenvalues below threshold      ... 0
Time for construction of square roots      ...    0.050 sec
Total time needed                          ...    0.138 sec

-------------------
DFT GRID GENERATION
-------------------

General Integration Accuracy     IntAcc      ... 4.959
Radial Grid Type                 RadialGrid  ... OptM3 with GC (2021)
Angular Grid (max. ang.)         AngularGrid ... 6 (Lebedev-590)
Angular grid pruning method      GridPruning ... 4 (adaptive)
Weight generation scheme         WeightScheme... mBecke (2022)
Basis function cutoff            BFCut       ... 1.0000e-11
Integration weight cutoff        WCut        ... 1.0000e-14
Partially contracted basis set               ... off
Rotationally invariant grid construction     ... off
Angular grids for H and He will be reduced by one unit
Core-polarized basis detected: some atoms will have their core
                               angular grid increased.

Total number of grid points                  ...   406524
Total number of batches                      ...     6366
Average number of points per batch           ...       63
Average number of grid points per atom       ...    11957

--------------------
COSX GRID GENERATION
--------------------

GRIDX 1
-------
General Integration Accuracy     IntAcc      ... 4.020
Radial Grid Type                 RadialGrid  ... OptM3 with GC (2021)
Angular Grid (max. ang.)         AngularGrid ... 2 (Lebedev-110)
Angular grid pruning method      GridPruning ... 4 (adaptive)
Weight generation scheme         WeightScheme... mBecke (2022)
Basis function cutoff            BFCut       ... 1.0000e-11
Integration weight cutoff        WCut        ... 1.0000e-14
Partially contracted basis set               ... on
Rotationally invariant grid construction     ... off
Angular grids for H and He will be reduced by one unit
Core-polarized basis detected: some atoms will have their core
                               angular grid increased.

Total number of grid points                  ...    47267
Total number of batches                      ...      389
Average number of points per batch           ...      121
Average number of grid points per atom       ...     1390
UseSFitting                                  ... on

GRIDX 2
-------
General Integration Accuracy     IntAcc      ... 4.338
Radial Grid Type                 RadialGrid  ... OptM3 with GC (2021)
Angular Grid (max. ang.)         AngularGrid ... 3 (Lebedev-194)
Angular grid pruning method      GridPruning ... 4 (adaptive)
Weight generation scheme         WeightScheme... mBecke (2022)
Basis function cutoff            BFCut       ... 1.0000e-11
Integration weight cutoff        WCut        ... 1.0000e-14
Partially contracted basis set               ... on
Rotationally invariant grid construction     ... off
Angular grids for H and He will be reduced by one unit
Core-polarized basis detected: some atoms will have their core
                               angular grid increased.

Total number of grid points                  ...    97354
Total number of batches                      ...      776
Average number of points per batch           ...      125
Average number of grid points per atom       ...     2863
UseSFitting                                  ... on

GRIDX 3
-------
General Integration Accuracy     IntAcc      ... 4.871
Radial Grid Type                 RadialGrid  ... OptM3 with GC (2021)
Angular Grid (max. ang.)         AngularGrid ... 4 (Lebedev-302)
Angular grid pruning method      GridPruning ... 4 (adaptive)
Weight generation scheme         WeightScheme... mBecke (2022)
Basis function cutoff            BFCut       ... 1.0000e-11
Integration weight cutoff        WCut        ... 1.0000e-14
Partially contracted basis set               ... on
Rotationally invariant grid construction     ... off
Angular grids for H and He will be reduced by one unit
Core-polarized basis detected: some atoms will have their core
                               angular grid increased.

Total number of grid points                  ...   182935
Total number of batches                      ...     1447
Average number of points per batch           ...      126
Average number of grid points per atom       ...     5380
UseSFitting                                  ... on
Initializing property integral containers    ... done (  0.0 sec)

SHARK setup successfully completed in   7.1 seconds

Maximum memory used throughout the entire STARTUP-calculation: 126.6 MB


           ************************************************************
           *        Program running with 16 parallel MPI-processes    *
           *              working on a common directory               *
           ************************************************************
-------------------------------------------------------------------------------
                                 ORCA GUESS
                   Start orbitals & Density for SCF / CASSCF
-------------------------------------------------------------------------------

------------
SCF SETTINGS
------------
Hamiltonian:
 Density Functional     Method          .... DFT(GTOs)
 Exchange Functional    Exchange        .... PBE
   PBE kappa parameter   XKappa         ....  0.804000
   PBE mue parameter    XMuePBE         ....  0.219520
 Correlation Functional Correlation     .... PBE
   PBE beta parameter  CBetaPBE         ....  0.066725
 LDA part of GGA corr.  LDAOpt          .... PW91-LDA
 Gradients option       PostSCFGGA      .... off
 Hybrid DFT is turned on
   Fraction HF Exchange ScalHFX         ....  0.250000
   Scaling of DF-GGA-X  ScalDFX         ....  0.750000
   Scaling of DF-GGA-C  ScalDFC         ....  1.000000
   Scaling of DF-LDA-C  ScalLDAC        ....  1.000000
   Perturbative correction              ....  0.000000
   NL short-range parameter             ....  6.900000
 RI-approximation to the Coulomb term is turned on
   Number of AuxJ basis functions       .... 1136
   RIJ-COSX (HFX calculated with COS-X)).... on


General Settings:
 Integral files         IntName         .... PIXXEE-S3
 Hartree-Fock type      HFTyp           .... UHF
 Total Charge           Charge          ....    0
 Multiplicity           Mult            ....    3
 Number of Electrons    NEL             ....  148
 Basis Dimension        Dim             ....  693
 Nuclear Repulsion      ENuc            ....   1817.3982237665 Eh

Convergence Acceleration:
 AO-DIIS                CNVDIIS         .... on
   Start iteration      DIISMaxIt       ....    12
   Startup error        DIISStart       ....  0.200000
   # of expansion vecs  DIISMaxEq       ....     5
   Bias factor          DIISBfac        ....   1.050
   Max. coefficient     DIISMaxC        ....  10.000
 MO-DIIS                CNVKDIIS        .... off
 Trust-Rad. Augm. Hess. CNVTRAH         .... auto
   Auto Start mean grad. ratio tolernc. ....  1.125000
   Auto Start start iteration           ....    50
   Auto Start num. interpolation iter.  ....    10
   Max. Number of Micro iterations      ....    24
   Max. Number of Macro iterations      .... Maxiter - #DIIS iter
   Number of Davidson start vectors     ....     2
   Converg. threshold    (grad. norm)   ....   1.000e-05
   Grad. Scal. Fac. for Micro threshold ....   0.100
   Minimum threshold for Micro iter.    ....   1.000e-02
   NR start threshold (gradient norm)   ....   1.000e-04
   Initial trust radius                 ....   0.400
   Minimum AH scaling param. (alpha)    ....   1.000
   Maximum AH scaling param. (alpha)    .... 1000.000
   Quad. conv. algorithm                .... NR
   White noise on init. David. guess    .... on
   Maximum white noise                  ....   0.010
   Pseudo random numbers                .... off
   Inactive MOs                         .... canonical
   Orbital update algorithm             .... Taylor
   Preconditioner                       .... Diag
   Full preconditioner red. dimension   ....   250
 SOSCF                  CNVSOSCF        .... on
   Start iteration      SOSCFMaxIt      ....   150
   Startup grad/error   SOSCFStart      ....  0.003300
   Hessian update       SOSCFHessUp     .... L-BFGS
 Level Shifting         CNVShift        .... on
   Level shift para.    LevelShift      ....    0.2500
   Turn off err/grad.   ShiftErr        ....    0.0010
 Zerner damping         CNVZerner       .... off
 Static damping         CNVDamp         .... on
   Fraction old density DampFac         ....    0.7000
   Max. Damping (<1)    DampMax         ....    0.9800
   Min. Damping (>=0)   DampMin         ....    0.0000
   Turn off err/grad.   DampErr         ....    0.1000

SCF Procedure:
 Maximum # iterations   MaxIter         ....   125
 SCF integral mode      SCFMode         .... Direct
   Integral package                     .... SHARK and LIBINT hybrid scheme
 Reset frequency        DirectResetFreq ....    20
 Integral Threshold     Thresh          ....  2.500e-11 Eh
 Primitive CutOff       TCut            ....  2.500e-12 Eh

Convergence Tolerance:
 Convergence Check Mode ConvCheckMode   .... Total+1el-Energy
 Convergence forced     ConvForced      .... 0
 Energy Change          TolE            ....  1.000e-08 Eh
 1-El. energy change                    ....  1.000e-05 Eh
 Orbital Gradient       TolG            ....  1.000e-05
 Orbital Rotation angle TolX            ....  1.000e-05
 DIIS Error             TolErr          ....  5.000e-07

------------------------------
INITIAL GUESS: MODEL POTENTIAL
------------------------------
Loading Hartree-Fock densities                     ... done
Calculating cut-offs                               ... done
Initializing the effective Hamiltonian             ... done
Setting up the integral package (SHARK)            ... done
done (   0.2 sec)
Making the grid                                    ... done (   0.2 sec)
Mapping shells                                     ... done
Starting the XC term evaluation                    ... done (   0.2 sec)
  promolecular density results
     # of electrons  =    147.983623575
     EX              =   -145.791009791
     EC              =     -5.283909212
     EX+EC           =   -151.074919002
Transforming the Hamiltonian                       ... done (   0.1 sec)
done (   0.1 sec)
Back transforming the eigenvectors                 ... done (   0.0 sec)
done
                      ------------------
                      INITIAL GUESS DONE (   1.0 sec)
                      ------------------
             **** ENERGY FILE WAS UPDATED (PIXXEE-S3.en.tmp) ****
Finished Guess after   1.4 sec
Maximum memory used throughout the entire GUESS-calculation: 59.3 MB


           ************************************************************
           *        Program running with 16 parallel MPI-processes    *
           *              working on a common directory               *
           ************************************************************

-------------------------------------------------------------------------------------------
                                      ORCA LEAN-SCF
                              memory conserving SCF solver
-------------------------------------------------------------------------------------------

----------------------------------------D-I-I-S--------------------------------------------
Iteration    Energy (Eh)           Delta-E    RMSDP     MaxDP     DIISErr   Damp  Time(sec)
-------------------------------------------------------------------------------------------
               ***  Starting incremental Fock matrix formation  ***
    1    -1754.5704651406911125     0.00e+00  5.49e-04  2.60e-02  7.94e-02  0.700  15.0
Warning: op=0 Small HOMO/LUMO gap (   0.080) - skipping pre-diagonalization
         Will do a full diagonalization
    2    -1754.8246048574494580    -2.54e-01  5.66e-04  2.48e-02  4.29e-02  0.700   9.0
                               ***Turning on AO-DIIS***
    3    -1754.9395429724647784    -1.15e-01  2.41e-04  1.64e-02  2.14e-02  0.700   8.3
    4    -1755.0071336785961194    -6.76e-02  4.31e-04  3.00e-02  1.17e-02  0.000   7.9
    5    -1755.1552449619950949    -1.48e-01  1.29e-04  6.71e-03  8.08e-03  0.000   8.2
    6    -1755.1565727517092910    -1.33e-03  9.31e-05  6.29e-03  8.08e-03  0.000   7.2
                              *** Initializing SOSCF ***
---------------------------------------S-O-S-C-F--------------------------------------
Iteration    Energy (Eh)           Delta-E    RMSDP     MaxDP     MaxGrad    Time(sec)
--------------------------------------------------------------------------------------
    7    -1755.1571772603053887    -6.05e-04  5.26e-05  3.79e-03  2.54e-03     7.6
               *** Restarting incremental Fock matrix formation ***
    8    -1755.1573867815884569    -2.10e-04  7.37e-05  6.01e-03  2.31e-03    14.7
    9    -1755.1575283593585937    -1.42e-04  1.68e-04  1.11e-02  2.38e-03    10.7
   10    -1755.1572953853408308     2.33e-04  8.38e-05  5.53e-03  6.13e-03    11.5
   11    -1755.1576241294521878    -3.29e-04  5.85e-05  4.72e-03  8.14e-04    10.8
   12    -1755.1576220634826768     2.07e-06  3.35e-05  2.24e-03  6.73e-04    10.5
   13    -1755.1576572784795189    -3.52e-05  8.40e-06  4.56e-04  1.18e-04     9.8
   14    -1755.1576570707240990     2.08e-07  5.21e-06  4.29e-04  1.24e-04     9.0
   15    -1755.1576587262482008    -1.66e-06  1.63e-06  8.65e-05  5.14e-05     8.3
   16    -1755.1576587502747770    -2.40e-08  1.25e-06  8.87e-05  8.00e-05     7.3
   17    -1755.1576588584605361    -1.08e-07  1.69e-06  9.68e-05  2.20e-05     6.9
   18    -1755.1576588611903844    -2.73e-09  1.30e-06  6.55e-05  1.86e-05     7.0
                 **** Energy Check signals convergence ****

               *****************************************************
               *                     SUCCESS                       *
               *           SCF CONVERGED AFTER  18 CYCLES          *
               *****************************************************

 done (   18.695 sec)
Old exchange energy                            :    -37.104994726 Eh
New exchange energy                            :    -37.104996860 Eh
Exchange energy change after final integration :     -0.000002134 Eh
Total energy after final integration           :  -1755.157660995 Eh
             **** ENERGY FILE WAS UPDATED (PIXXEE-S3.en.tmp) ****

----------------
TOTAL SCF ENERGY
----------------

Total Energy       :      -1755.15766099491293 Eh          -47760.26804 eV

Components:
Nuclear Repulsion  :       1817.39822376649386 Eh           49453.91986 eV
Electronic Energy  :      -3572.55588262768424 Eh          -97214.18784 eV
One Electron Energy:      -6014.80335643467970 Eh         -163671.12021 eV
Two Electron Energy:       2442.24747380699546 Eh           66456.93237 eV

Virial components:
Potential Energy   :      -3508.32708692632968 Eh          -95466.43345 eV
Kinetic Energy     :       1753.16942593141675 Eh           47706.16541 eV
Virial Ratio       :          2.00113408038840

DFT components:
N(Alpha)           :       74.999993514688 electrons
N(Beta)            :       72.999992938376 electrons
N(Total)           :      147.999986453065 electrons
E(X)               :     -111.011496304536 Eh       
E(C)               :       -5.281226895137 Eh       
E(XC)              :     -116.292723199673 Eh       

---------------
SCF CONVERGENCE
---------------

  Last Energy change         ...    2.7298e-09  Tolerance :   1.0000e-08
  Last MAX-Density change    ...    6.5547e-05  Tolerance :   1.0000e-07
  Last RMS-Density change    ...    1.3005e-06  Tolerance :   5.0000e-09
  Last DIIS Error            ...    2.5368e-03  Tolerance :   5.0000e-07
  Last Orbital Gradient      ...    1.8588e-05  Tolerance :   1.0000e-05
  Last Orbital Rotation      ...    2.8405e-04  Tolerance :   1.0000e-05


----------------------
UHF SPIN CONTAMINATION
----------------------

[...]
 43:    858.30   0.000827    4.18  0.000301  ( 0.009588 -0.011965  0.008103)
 44:    869.47   0.000006    0.03  0.000002  ( 0.000557  0.001209  0.000474)
 45:    885.10   0.000096    0.48  0.000034  (-0.004004  0.000277  0.004207)
 46:    898.47   0.000002    0.01  0.000001  ( 0.000320  0.000554  0.000338)
 47:    932.50   0.000269    1.36  0.000090  ( 0.005030  0.001345 -0.007929)
 48:    946.08   0.000003    0.02  0.000001  ( 0.000478  0.000830  0.000387)
 49:    959.07   0.000008    0.04  0.000003  ( 0.000956  0.001188  0.000639)
 50:    964.00   0.001323    6.69  0.000428  (-0.012059  0.013664 -0.009810)
 51:    991.37   0.000025    0.12  0.000008  (-0.001414 -0.002078 -0.001210)
 52:   1001.50   0.000001    0.01  0.000000  ( 0.000455 -0.000114 -0.000379)
 53:   1025.11   0.000753    3.80  0.000229  ( 0.009690 -0.009924  0.006059)
 54:   1032.00   0.006691   33.81  0.002023  (-0.027126 -0.002501  0.035793)
 55:   1036.43   0.000007    0.03  0.000002  ( 0.000754  0.001089  0.000492)
 56:   1053.38   0.002532   12.80  0.000750  (-0.014079 -0.020106 -0.012152)
 57:   1057.90   0.004012   20.28  0.001184  ( 0.020305 -0.023115  0.015395)
 58:   1067.57   0.000000    0.00  0.000000  ( 0.000044 -0.000208 -0.000194)
 59:   1075.36   0.000092    0.47  0.000027  (-0.002728  0.003405 -0.002791)
 60:   1111.53   0.000999    5.05  0.000280  ( 0.009344 -0.011042  0.008435)
 61:   1174.77   0.000434    2.19  0.000115  (-0.006839 -0.000394  0.008268)
 62:   1178.62   0.001129    5.71  0.000299  ( 0.008577  0.013001  0.007507)
 63:   1179.72   0.000682    3.45  0.000180  (-0.006726 -0.010075 -0.005802)
 64:   1207.19   0.001063    5.37  0.000275  ( 0.008305  0.012457  0.007118)
 65:   1243.99   0.001461    7.38  0.000367  (-0.010017  0.012580 -0.010388)
 66:   1255.84   0.002134   10.79  0.000530  ( 0.011453  0.017319  0.009961)
 67:   1265.57   0.000023    0.12  0.000006  ( 0.000908 -0.001451  0.001677)
 68:   1268.12   0.000021    0.11  0.000005  ( 0.001325  0.001635  0.000833)
 69:   1268.30   0.000007    0.03  0.000002  (-0.000555  0.000877  0.000733)
 70:   1313.98   0.001125    5.69  0.000267  (-0.008158 -0.012259 -0.007098)
 71:   1346.20   0.000007    0.04  0.000002  ( 0.001001 -0.000837  0.000140)
 72:   1373.68   0.000791    3.99  0.000180  (-0.006675 -0.010066 -0.005806)
 73:   1396.08   0.000708    3.58  0.000158  (-0.006206 -0.009471 -0.005488)
 74:   1405.49   0.000124    0.63  0.000027  (-0.003048  0.003393 -0.002584)
 75:   1406.67   0.000006    0.03  0.000001  ( 0.000702 -0.000736  0.000561)
 76:   1421.02   0.000553    2.79  0.000121  ( 0.007347 -0.000011 -0.008210)
 77:   1442.31   0.001140    5.76  0.000247  (-0.009563 -0.000877  0.012423)
 78:   1446.28   0.000011    0.06  0.000002  (-0.000536 -0.001143 -0.000900)
 79:   1456.38   0.000166    0.84  0.000036  ( 0.002676 -0.003337  0.004153)
 80:   1457.79   0.005061   25.57  0.001083  (-0.016411 -0.024789 -0.014124)
 81:   1485.45   0.001065    5.38  0.000224  (-0.008343  0.010019 -0.007327)
 82:   1499.04   0.008257   41.73  0.001719  ( 0.020733  0.031074  0.017984)
 83:   1541.13   0.000003    0.02  0.000001  (-0.000373 -0.000670 -0.000343)
 84:   1543.78   0.000017    0.09  0.000003  ( 0.001336 -0.001185  0.000529)
 85:   1652.44   0.005427   27.43  0.001025  ( 0.017334 -0.021479  0.016222)
 86:   1654.50   0.006535   33.02  0.001233  ( 0.017736  0.026111  0.015369)
 87:   3047.07   0.004038   20.40  0.000414  (-0.008475 -0.016750 -0.007818)
 88:   3047.27   0.003032   15.32  0.000311  ( 0.013109 -0.009195  0.007359)
 89:   3082.48   0.000217    1.10  0.000022  ( 0.003476  0.002623 -0.001742)
 90:   3082.61   0.001778    8.98  0.000180  ( 0.006672  0.001062 -0.011590)
 91:   3184.73   0.000111    0.56  0.000011  (-0.001751  0.002153 -0.001783)
 92:   3196.53   0.002202   11.13  0.000215  ( 0.007317  0.011003  0.006352)
 93:   3207.46   0.003103   15.68  0.000302  (-0.009982  0.011475 -0.008400)
 94:   3231.50   0.000145    0.73  0.000014  (-0.002706 -0.000021  0.002581)
 95:   3232.28   0.000008    0.04  0.000001  ( 0.000087 -0.000258 -0.000821)
 96:   3234.88   0.000194    0.98  0.000019  (-0.002834 -0.002153 -0.002452)
 97:   3235.74   0.000800    4.04  0.000077  ( 0.004940 -0.006299  0.003610)
 98:   3249.69   0.000001    0.00  0.000000  ( 0.000098 -0.000176 -0.000196)
 99:   3250.86   0.001342    6.78  0.000129  ( 0.006901  0.000668 -0.008986)
100:   3262.93   0.000024    0.12  0.000002  ( 0.001016  0.000614  0.000958)
101:   3263.50   0.001093    5.53  0.000105  ( 0.006334 -0.006794  0.004275)

* The epsilon (eps) is given for a Dirac delta lineshape.
** The dipole moment derivative (T) already includes vibrational overlap.

The first frequency considered to be a vibration is 6
The total number of vibrations considered is 96


--------------------------
THERMOCHEMISTRY AT 298.15K
--------------------------

Temperature         ...   298.15 K
Pressure            ...     1.00 atm
Total Mass          ...   285.31 AMU
Quasi RRHO          ...     True
Cut-Off Frequency   ...     1.00 cm^-1

Throughout the following assumptions are being made:
  (1) The electronic state is orbitally nondegenerate
      but the spin degeneracy is treated
  (2) There are no thermally accessible electronically excited states
  (3) Hindered rotations indicated by low frequency modes are not
      treated as such but are treated as vibrations and this may
      cause some error
  (4) All equations used are the standard statistical mechanics
      equations for an ideal gas
  (5) All vibrations are strictly harmonic

freq.      24.55  E(vib)   ...       0.56 
freq.      43.09  E(vib)   ...       0.53 
freq.     114.56  E(vib)   ...       0.44 
freq.     164.03  E(vib)   ...       0.39 
freq.     170.13  E(vib)   ...       0.38 
freq.     194.11  E(vib)   ...       0.36 
freq.     202.75  E(vib)   ...       0.35 
freq.     243.22  E(vib)   ...       0.31 
freq.     292.29  E(vib)   ...       0.27 
freq.     299.91  E(vib)   ...       0.26 
freq.     328.64  E(vib)   ...       0.24 
freq.     343.21  E(vib)   ...       0.23 
freq.     367.54  E(vib)   ...       0.21 
freq.     370.92  E(vib)   ...       0.21 
freq.     385.04  E(vib)   ...       0.20 
freq.     398.52  E(vib)   ...       0.20 
freq.     448.61  E(vib)   ...       0.17 
freq.     454.54  E(vib)   ...       0.16 
freq.     542.29  E(vib)   ...       0.12 
freq.     590.85  E(vib)   ...       0.10 
freq.     591.98  E(vib)   ...       0.10 
freq.     613.73  E(vib)   ...       0.10 
freq.     622.84  E(vib)   ...       0.09 
freq.     642.68  E(vib)   ...       0.09 
freq.     652.80  E(vib)   ...       0.08 
freq.     747.07  E(vib)   ...       0.06 
freq.     749.36  E(vib)   ...       0.06 
freq.     763.90  E(vib)   ...       0.06 
freq.     765.45  E(vib)   ...       0.06 
freq.     774.40  E(vib)   ...       0.05 
freq.     778.97  E(vib)   ...       0.05 
freq.     779.92  E(vib)   ...       0.05 
freq.     786.50  E(vib)   ...       0.05 
freq.     805.64  E(vib)   ...       0.05 
freq.     820.04  E(vib)   ...       0.05 
freq.     846.29  E(vib)   ...       0.04 
freq.     847.96  E(vib)   ...       0.04 
freq.     858.30  E(vib)   ...       0.04 
freq.     869.47  E(vib)   ...       0.04 
freq.     885.10  E(vib)   ...       0.04 
freq.     898.47  E(vib)   ...       0.03 
freq.     932.50  E(vib)   ...       0.03 
freq.     946.08  E(vib)   ...       0.03 
freq.     959.07  E(vib)   ...       0.03 
freq.     964.00  E(vib)   ...       0.03 
freq.     991.37  E(vib)   ...       0.02 
freq.    1001.50  E(vib)   ...       0.02 
freq.    1025.11  E(vib)   ...       0.02 
freq.    1032.00  E(vib)   ...       0.02 
freq.    1036.43  E(vib)   ...       0.02 
freq.    1053.38  E(vib)   ...       0.02 
freq.    1057.90  E(vib)   ...       0.02 
freq.    1067.57  E(vib)   ...       0.02 
freq.    1075.36  E(vib)   ...       0.02 
freq.    1111.53  E(vib)   ...       0.01 
freq.    1174.77  E(vib)   ...       0.01 
freq.    1178.62  E(vib)   ...       0.01 
freq.    1179.72  E(vib)   ...       0.01 
freq.    1207.19  E(vib)   ...       0.01 
freq.    1243.99  E(vib)   ...       0.01 
freq.    1255.84  E(vib)   ...       0.01 
freq.    1265.57  E(vib)   ...       0.01 
freq.    1268.12  E(vib)   ...       0.01 
freq.    1268.30  E(vib)   ...       0.01 
freq.    1313.98  E(vib)   ...       0.01 
freq.    1346.20  E(vib)   ...       0.01 
freq.    1373.68  E(vib)   ...       0.01 
freq.    1396.08  E(vib)   ...       0.00 
freq.    1405.49  E(vib)   ...       0.00 
freq.    1406.67  E(vib)   ...       0.00 
freq.    1421.02  E(vib)   ...       0.00 
freq.    1442.31  E(vib)   ...       0.00 
freq.    1446.28  E(vib)   ...       0.00 
freq.    1456.38  E(vib)   ...       0.00 
freq.    1457.79  E(vib)   ...       0.00 
freq.    1485.45  E(vib)   ...       0.00 
freq.    1499.04  E(vib)   ...       0.00 
freq.    1541.13  E(vib)   ...       0.00 
freq.    1543.78  E(vib)   ...       0.00 
freq.    1652.44  E(vib)   ...       0.00 
freq.    1654.50  E(vib)   ...       0.00 
freq.    3047.07  E(vib)   ...       0.00 
freq.    3047.27  E(vib)   ...       0.00 
freq.    3082.48  E(vib)   ...       0.00 
freq.    3082.61  E(vib)   ...       0.00 
freq.    3184.73  E(vib)   ...       0.00 
freq.    3196.53  E(vib)   ...       0.00 
freq.    3207.46  E(vib)   ...       0.00 
freq.    3231.50  E(vib)   ...       0.00 
freq.    3232.28  E(vib)   ...       0.00 
freq.    3234.88  E(vib)   ...       0.00 
freq.    3235.74  E(vib)   ...       0.00 
freq.    3249.69  E(vib)   ...       0.00 
freq.    3250.86  E(vib)   ...       0.00 
freq.    3262.93  E(vib)   ...       0.00 
freq.    3263.50  E(vib)   ...       0.00 

------------
INNER ENERGY
------------

The inner energy is: U= E(el) + E(ZPE) + E(vib) + E(rot) + E(trans)
    E(el)   - is the total energy from the electronic structure calculation
              = E(kin-el) + E(nuc-el) + E(el-el) + E(nuc-nuc)
    E(ZPE)  - the the zero temperature vibrational energy from the frequency calculation
    E(vib)  - the the finite temperature correction to E(ZPE) due to population
              of excited vibrational states
    E(rot)  - is the rotational thermal energy
    E(trans)- is the translational thermal energy

Summary of contributions to the inner energy U:
Electronic energy                ...  -1755.29204236 Eh
Zero point energy                ...      0.27344236 Eh     171.59 kcal/mol
Thermal vibrational correction   ...      0.01179245 Eh       7.40 kcal/mol
Thermal rotational correction    ...      0.00141627 Eh       0.89 kcal/mol
Thermal translational correction ...      0.00141627 Eh       0.89 kcal/mol
-----------------------------------------------------------------------
Total thermal energy                  -1755.00397501 Eh


Summary of corrections to the electronic energy:
(perhaps to be used in another calculation)
Total thermal correction                  0.01462499 Eh       9.18 kcal/mol
Non-thermal (ZPE) correction              0.27344236 Eh     171.59 kcal/mol
-----------------------------------------------------------------------
Total correction                          0.28806734 Eh     180.76 kcal/mol


--------
ENTHALPY
--------

The enthalpy is H = U + kB*T
                kB is Boltzmann's constant
Total thermal energy              ...  -1755.00397501 Eh 
Thermal Enthalpy correction       ...      0.00094421 Eh       0.59 kcal/mol
-----------------------------------------------------------------------
Total Enthalpy                    ...  -1755.00303080 Eh


Note: Only C1 symmetry has been detected, increase convergence thresholds 
      if your molecule has a higher symmetry. Symmetry factor of 1.0 is   
      used for the rotational entropy correction. 
 

Note: Rotational entropy computed according to Herzberg 
Infrared and Raman Spectra, Chapter V,1, Van Nostrand Reinhold, 1945 
Point Group:  C1, Symmetry Number:   1  
Rotational constants in cm-1:     0.021076     0.013105     0.009099 

Vibrational entropy computed according to the QRRHO of S. Grimme
Chem.Eur.J. 2012 18 9955 using a reference frequency of 100.0 cm-1


-------
ENTROPY
-------

The entropy contributions are T*S = T*(S(el)+S(vib)+S(rot)+S(trans))
     S(el)   - electronic entropy
     S(vib)  - vibrational entropy
     S(rot)  - rotational entropy
     S(trans)- translational entropy
The entropies will be listed as multiplied by the temperature to get
units of energy

Electronic entropy                ...      0.00103729 Eh      0.65 kcal/mol
Vibrational entropy               ...      0.01960360 Eh     12.30 kcal/mol
Rotational entropy                ...      0.01559791 Eh      9.79 kcal/mol
Translational entropy             ...      0.02035609 Eh     12.77 kcal/mol
-----------------------------------------------------------------------
Final entropy term                ...      0.05659489 Eh     35.51 kcal/mol

In case the symmetry of your molecule has not been determined correctly
or in case you have a reason to use a different symmetry number we print 
out the resulting rotational entropy values for sn=1,12:

 non-linear molecules -----------------------------------
|  sn= 1 | S(rot)=       0.01559791 Eh      9.79 kcal/mol|
|  sn= 2 | S(rot)=       0.01494346 Eh      9.38 kcal/mol|
|  sn= 3 | S(rot)=       0.01456062 Eh      9.14 kcal/mol|
|  sn= 4 | S(rot)=       0.01428900 Eh      8.97 kcal/mol|
|  sn= 5 | S(rot)=       0.01407831 Eh      8.83 kcal/mol|
|  sn= 6 | S(rot)=       0.01390617 Eh      8.73 kcal/mol|
|  sn= 7 | S(rot)=       0.01376062 Eh      8.63 kcal/mol|
|  sn= 8 | S(rot)=       0.01363454 Eh      8.56 kcal/mol|
|  sn= 9 | S(rot)=       0.01352334 Eh      8.49 kcal/mol|
|  sn=10 | S(rot)=       0.01342386 Eh      8.42 kcal/mol|
|  sn=11 | S(rot)=       0.01333387 Eh      8.37 kcal/mol|
|  sn=12 | S(rot)=       0.01325171 Eh      8.32 kcal/mol|
 linear molecules ---------------------------------------
|  Dinfh | S(rot)=       0.00976306 Eh      6.13 kcal/mol|
|  Cinfv | S(rot)=       0.01041752 Eh      6.54 kcal/mol|
 --------------------------------------------------------


-------------------
GIBBS FREE ENERGY
-------------------

The Gibbs free energy is G = H - T*S

Total enthalpy                    ...  -1755.00303080 Eh 
Total entropy correction          ...     -0.05659489 Eh    -35.51 kcal/mol
-----------------------------------------------------------------------
Final Gibbs free energy         ...  -1755.05962569 Eh

For completeness - the Gibbs free energy minus the electronic energy
G-E(el)                           ...      0.23241666 Eh    145.84 kcal/mol


Maximum memory used throughout the entire PROP-calculation: 687.2 MB

--------------------------------
SUGGESTED CITATIONS FOR THIS RUN
--------------------------------

Below you find a list of papers that are relevant to this ORCA run
We neither can nor want to force you to cite these papers, but we appreciate if you do
You receive ORCA, which is the product of decades of hard work by many enthusiastic individuals, for free
The only thing we kindly ask in return is that you cite our papers,
We deeply appreciate it, if you show your appreciation for ORCA by not just citing the generic ORCA reference.

Please note that relegating all ORCA citations to the supporting information does *not* help us.
SI sections are not indexed - citations you put there will not count into any citation statistics
But we need these citations in order to attract the funding resources that allow us to do what we are doing

Therefore, if you are a happy ORCA user, please consider citing a few of the papers listed below in the main body of your paper

In addition to the list printed below, the program has created the file PIXXEE-S3.bibtex that contains the list in bibtex format
You can import this file easily into all common literature databanks and citation aid programs


List of essential papers. We consider these as the minimum necessary citations

  1. Neese,F.
     Software update: the ORCA program system, version 5.0
     WIRES Comput. Molec. Sci., 2022 12(1)e1606
     doi.org/10.1002/wcms.1606

List of papers to cite with high priority. The work reported in these papers was absolutely
necessary for this run to complete.
Our perspective: the developers of density functionals and basis sets usually get cited in chemistry papers
Good! But without the algorithms to do something with them, the functionals or basis sets would not do anything.
Hence, in our opinion, the algorithm design and method developments papers are equally worthy of getting cited

  1. Neese,F.
     An improvement of the resolution of the identity approximation for the formation of the Coulomb matrix
     J. Comp. Chem., 2003 24(14)1740-1747
     doi.org/10.1002/jcc.10318
  2. Neese,F.; Wennmohs,F.; Hansen,A.; Becker,U.
     Efficient, approximate and parallel Hartree-Fock and hybrid DFT calculations. A 'chain-of-spheres' algorithm for the Hartree-Fock exchange
     Chem. Phys., 2009 356(1-3)98-109
     doi.org/10.1016/j.chemphys.2008.10.036
  3. Bykov,D.; Petrenko,T.; Izsak,R.; Kossmann,S.; Becker,U.; Valeev,E.; Neese,F.
     Efficient implementation of the analytic second derivatives of Hartree-Fock and hybrid DFT energies: a detailed analysis of different approximations
     Molec. Phys., 2015 113 1961-1977
     doi.org/10.1080/00268976.2015.1025114
  4. Helmich-Paris,B.; de Souza,B.; Neese,F.; Izsák,R.
     An improved chain of spheres for exchange algorithm
     J. Chem. Phys., 2021 155 104109
     doi.org/doi: 10.1063/5.0058766.
  5. Neese,F.
     The SHARK Integral Generation and Digestion System
     J. Comp. Chem., 2022  1-16
     doi.org/10.1002/jcc.26942

List of suggested additional citations. These are papers that are important in the 'surrounding' of 
of this run, or papers that preceded the highly important papers. If you like your results we are grateful for a citation.

  1. Izsak,R.; Neese,F.
     An overlap fitted chain of spheres exchange method
     J. Chem. Phys., 2011 135 144105
     doi.org/10.1063/1.3646921
  2. Izsak,R.; Hansen,A.; Neese,F.
     The resolution of identity and chain of spheres approximations for the LPNO-CCSD singles Fock term
     Molec. Phys., 2012 110 2413-2417
     doi.org/10.1080/00268976.2012.687466
  3. Neese,F.
     The ORCA program system
     WIRES Comput. Molec. Sci., 2012 2(1)73-78
     doi.org/10.1002/wcms.81
  4. Izsak,R.; Neese,F.; Klopper,W.
     Robust fitting techniques in the chain of spheres approximation to the Fock exchange: The role of the complementary space
     J. Chem. Phys., 2013 139 
     doi.org/10.1063/1.4819264
  5. Neese,F.
     Software update: the ORCA program system, version 4.0
     WIRES Comput. Molec. Sci., 2018 8(1)1-6
     doi.org/10.1002/wcms.1327
  6. Neese,F.; Wennmohs,F.; Becker,U.; Riplinger,C.
     The ORCA quantum chemistry program package
     J. Chem. Phys., 2020 152 Art. No. L224108
     doi.org/10.1063/5.0004608

List of optional additional citations

  1. Neese,F.
     Approximate second-order SCF convergence for spin unrestricted wavefunctions
     Chem. Phys. Lett., 2000 325(1-3)93-98
     doi.org/10.1016/s0009-2614(00)00662-x

Timings for individual modules:

Sum of individual times          ...     6068.809 sec (= 101.147 min)
Startup calculation              ...      116.202 sec (=   1.937 min)   1.9 %
SCF iterations                   ...     2083.162 sec (=  34.719 min)  34.3 %
Property integrals               ...      843.736 sec (=  14.062 min)  13.9 %
SCF Response                     ...     1861.152 sec (=  31.019 min)  30.7 %
Property calculations            ...      578.970 sec (=   9.649 min)   9.5 %
SCF Gradient evaluation          ...      584.766 sec (=   9.746 min)   9.6 %
Geometry relaxation              ...        0.821 sec (=   0.014 min)   0.0 %
                             ****ORCA TERMINATED NORMALLY****
TOTAL RUN TIME: 0 days 1 hours 41 minutes 30 seconds 153 msec
