
                                 *****************
                                 * O   R   C   A *
                                 *****************

                                            #,                                       
                                            ###                                      
                                            ####                                     
                                            #####                                    
                                            ######                                   
                                           ########,                                 
                                     ,,################,,,,,                         
                               ,,#################################,,                 
                          ,,##########################################,,             
                       ,#########################################, ''#####,          
                    ,#############################################,,   '####,        
                  ,##################################################,,,,####,       
                ,###########''''           ''''###############################       
              ,#####''   ,,,,##########,,,,          '''####'''          '####       
            ,##' ,,,,###########################,,,                        '##       
           ' ,,###''''                  '''############,,,                           
         ,,##''                                '''############,,,,        ,,,,,,###''
      ,#''                                            '''#######################'''  
     '                                                          ''''####''''         
             ,#######,   #######,   ,#######,      ##                                
            ,#'     '#,  ##    ##  ,#'     '#,    #''#        ,####,   ,####,        
            ##       ##  ##   ,#'  ##            #'  '#       #'       #'  '#        
            ##       ##  #######   ##           ,######,      #####,   #    #        
            '#,     ,#'  ##    ##  '#,     ,#' ,#      #,     #,   #   #,  ,#        
             '#######'   ##     ##  '#######'  #'      '#     '####' # '####'        



                #########################################################
                #                        -***-                          #
                #          Department of theory and spectroscopy        #
                #                                                       #
                #                      Frank Neese                      #
                #                                                       #
                #     Directorship, Architecture, Infrastructure        #
                #                    SHARK, DRIVERS                     #
                #        Core code/Algorithms in most modules           #
                #                                                       #
                #        Max Planck Institute fuer Kohlenforschung      #
                #                Kaiser Wilhelm Platz 1                 #
                #                 D-45470 Muelheim/Ruhr                 #
                #                      Germany                          #
                #                                                       #
                #                  All rights reserved                  #
                #                        -***-                          #
                #########################################################


                         Program Version 6.0.1  -  RELEASE   -


 With contributions from (in alphabetic order):
[Max-Planck-Institut fuer Kohlenforschung]                               
  Daniel Aravena         : Magnetic Suceptibility                        
  Michael Atanasov       : Ab Initio Ligand Field Theory (pilot matlab implementation)
  Alexander A. Auer      : GIAO ZORA, VPT2 properties, NMR spectrum      
  Ute Becker             : All parallelization in ORCA, NUMFREQ, NUMCALC 
  Giovanni Bistoni       : ED, misc. LED, open-shell LED, HFLD           
  Martin Brehm           : Molecular dynamics                            
  Dmytro Bykov           : pre 5.0 version of the SCF Hessian            
  Marcos Casanova-Páez   : Triplet and SCS-CIS(D). UHF-(DLPNO)-IP/EA/STEOM-CCSD. UHF-CVS-IP/STEOM-CCSD   
  Vijay G. Chilkuri      : MRCI spin determinant printing, contributions to CSF-ICE 
  Pauline Colinet        : FMM embedding                                 
  Dipayan Datta          : RHF DLPNO-CCSD density                        
  Achintya Kumar Dutta   : EOM-CC, STEOM-CC                              
  Nicolas Foglia         : Exact transition moments, OPA infrastructure, MCD improvements    
  Dmitry Ganyushin       : Spin-Orbit,Spin-Spin,Magnetic field MRCI      
  Miquel Garcia-Rates    : C-PCM and meta-GGA Hessian, CCSD/C-PCM, Gaussian charge scheme 
  Tiago L. C. Gouveia    : GS-ROHF, GS-ROCIS                             
  Yang Guo               : DLPNO-NEVPT2, F12-NEVPT2, CIM, IAO-localization        
  Andreas Hansen         : Spin unrestricted coupled pair/coupled cluster methods 
  Ingolf Harden          : AUTO-CI MPn and infrastructure                
  Benjamin Helmich-Paris : MC-RPA, TRAH-(SCF,CASSCF), AVAS, COSX integrals, SCF dyn. polar. 
  Lee Huntington         : MR-EOM, pCC                                   
  Robert Izsak           : Overlap fitted RIJCOSX, COSX-SCS-MP3, EOM     
  Riya Kayal             : Wick's Theorem for AUTO-CI, AUTO-CI UHF-CCSDT 
  Emily Kempfer          : AUTO-CI, RHF CISDT and CCSDT                  
  Christian Kollmar      : KDIIS, OOCD, Brueckner-CCSD(T), CCSD density, CASPT2, CASPT2-K, improved NEVPT2 
  Axel Koslowski         : Symmetry handling                             
  Simone Kossmann        : meta-GGA functionals, TD-DFT gradient, OOMP2, (MP2 Hessian; deprecated post 5.0) 
  Lucas Lang             : DCDCAS                                        
  Marvin Lechner         : AUTO-CI (C++ implementation), FIC-MRCC        
  Spencer Leger          : CASSCF response                               
  Dagmar Lenk            : GEPOL surface, SMD, ORCA-2-JSON               
  Dimitrios Liakos       : Extrapolation schemes; Compound Job, initial MDCI parallelization 
  Dimitrios Manganas     : Further ROCIS development; embedding schemes. LFT, Crystal Embedding 
  Dimitrios Pantazis     : SARC Basis sets                               
  Anastasios Papadopoulos: AUTO-CI, single reference methods and gradients 
  Taras Petrenko         : pre 6.0 DFT Hessian and TD-DFT gradient, (ASA, deprecated), ECA, 1-Electron XAS/XES, NRVS 
  Peter Pinski           : DLPNO-MP2, DLPNO-MP2 Gradient                 
  Christoph Reimann      : Effective Core Potentials                     
  Marius Retegan         : Local ZFS, SOC                                
  Christoph Riplinger    : Optimizer, TS searches, QM/MM, DLPNO-CCSD(T), (RO)-DLPNO pert. Triples 
  Michael Roemelt        : Original ROCIS implementation                 
  Masaaki Saitow         : Open-shell DLPNO-CCSD energy and density      
  Barbara Sandhoefer     : DKH picture change effects                    
  Kantharuban Sivalingam : CASSCF convergence/infrastructure, NEVPT2 and variants, FIC-MRCI 
  Bernardo de Souza      : ESD, SOC TD-DFT                               
  Georgi L. Stoychev     : AutoAux, RI-MP2 NMR, DLPNO-MP2 response, X2C  
  Van Anh Tran           : RI-MP2 g-tensors                              
  Willem Van den Heuvel  : Paramagnetic NMR                              
  Zikuan Wang            : NOTCH, Electric field optimization            
  Frank Wennmohs         : Technical directorship and infrastructure     
  Hang Xu                : AUTO-CI-Response properties                   
                                                                         
[FACCTs GmbH]                                                            
  Markus Bursch, Miquel Garcia-Rates, Christoph Riplinger, Bernardo de Souza, Georgi L. Stoychev 
                                                                 
  APM, Basis sets (HGBS, AHGBS, def-TZVP (Ac-Lr), def2-XVPD (La-Lu)), CI-OPT, improved COSX, DLPNO-Multilevel,           
  DOCKER, DRACO, updates on ESD, GOAT, IRC, LR-CPCM, MBIS, meta-GGA TD-DFT gradient, ML-optimized integration grids, 
  MM, NACMEs, nearIR, NEB, NEB-TS, NL-DFT gradient (VV10), 2- and 3-layer-ONIOM, interface openCOSMO-RS, QMMM,   
  Crystal-QMMM, SF, symmetry and pop. for TD-DFT, r2SCAN hybrids, SOLVATOR                                   
                                                                         
[Other institutions]                                                     
  V. Asgeirsson          : NEB                                           
  Christoph Bannwarth    : sTDA-DFT, sTD-DFT, PBEh-3c, B97-3c, D3        
  Sebastian Ehlert       : rSCAN, r2SCAN, r2SCAN-3c, D4, dhf basis sets  
  Marvin Friede          : D4 for Fr, Ra, Ac-Lr                          
  Lars Goerigk           : TD-DFT with DH, B97 family of functionals     
  Stefan Grimme          : VdW corrections, initial TS optimization, DFT functionals, gCP, sTDA/sTD-DF 
  Waldemar Hujo          : DFT-NL                                        
  H. Jonsson             : NEB                                           
  Holger Kruse           : gCP                                           
  Marcel Mueller         : wB97X-3c, vDZP basis set                      
  Hagen Neugebauer       : wr2SCAN                                       
  Tobias Risthaus        : range-separated hybrid DFT                    
  Lukas Wittmann         : regularized MP2, r2SCAN double-hybrids, wr2SCAN        
                                                                         
We gratefully acknowledge several colleagues who have allowed us to      
interface, adapt or use parts of their codes:                            
  Ed Valeev, F. Pavosevic, A. Kumar             : LibInt (2-el integral package), F12 methods 
  Garnet Chan, S. Sharma, J. Yang, R. Olivares  : DMRG                   
  Ulf Ekstrom                                   : XCFun DFT Library      
  Mihaly Kallay                                 : mrcc  (arbitrary order and MRCC methods)
  Frank Weinhold                                : gennbo (NPA and NBO analysis)           
  Simon Mueller                                 : openCOSMO-RS                            
  Christopher J. Cramer and Donald G. Truhlar   : smd solvation model                     
  S Lehtola, MJT Oliveira, MAL Marques          : LibXC Library                           
  Liviu Ungur et al                             : ANISO software                          


 Your calculation uses the libint2 library for the computation of 2-el integrals
 For citations please refer to: http://libint.valeyev.net

 Your ORCA version has been built with support for libXC version: 6.2.2
 For citations please refer to: https://libxc.gitlab.io

 This ORCA versions uses:
   CBLAS   interface :  Fast vector & matrix operations
   LAPACKE interface :  Fast linear algebra routines
   SCALAPACK package :  Parallel linear algebra routines
   Shared memory     :  Shared parallel matrices
   BLAS/LAPACK       :  OpenBLAS 0.3.27  USE64BITINT DYNAMIC_ARCH NO_AFFINITY Cooperlake SINGLE_THREADED
        Core in use  :  Cooperlake
   Copyright (c) 2011-2014, The OpenBLAS Project


NOTE: MaxCore=3600 MB was set to SCF,MP2,MDCI,CIPSI,MRCI and CIS
      => If you want to overwrite this, your respective input block should be placed after the MaxCore statement
Warning: RI is on but no J-basis has been assigned. Assigning Def2/J (nothing to worry about!)
================================================================================

----- Orbital basis set information -----
Your calculation utilizes the basis: def2-TZVP
   F. Weigend and R. Ahlrichs, Phys. Chem. Chem. Phys. 7, 3297 (2005).

----- AuxJ basis set information -----
Your calculation utilizes the auxiliary basis: def2/J
   F. Weigend, Phys. Chem. Chem. Phys. 8, 1057 (2006).

================================================================================
                                        WARNINGS
                       Please study these warnings very carefully!
================================================================================


WARNING: your system is open-shell and RHF/RKS was chosen
  ===> : WILL SWITCH to UHF/UKS


WARNING: Geometry Optimization
  ===> : Switching off AutoStart
         For restart on a previous wavefunction, please use MOREAD

================================================================================
                                       INPUT FILE
================================================================================
NAME = SOFXAM-S5.inp
|  1> ! PBE0 def2-TZVP  Opt Freq DEFGRID3
|  2> 
|  3> %maxcore 3600
|  4> 
|  5> %pal
|  6>     nprocs 16
|  7> end
|  8> 
|  9> *xyz 0 3
| 10> Cr 3.8968 0.0 6.518
| 11> S 5.4702 4.1396 4.6403
| 12> N 4.7412 1.6586 5.6967
| 13> N 2.3986 0.1603 4.9693
| 14> N 0.0031 -0.137 6.4294
| 15> C 5.05 2.6867 5.2652
| 16> C 1.501 -0.9418 4.7073
| 17> C 1.8029 -1.8725 3.7257
| 18> C 0.9601 -2.942 3.478
| 19> C -0.2057 -3.0731 4.208
| 20> C -0.5095 -2.1494 5.1883
| 21> C 0.3424 -1.0788 5.466
| 22> H 2.5549 -1.8125 3.259
| 23> H 1.1574 -3.5609 2.8027
| 24> H -0.7267 -3.7824 4.0412
| 25> H -1.3449 -2.2088 5.6446
| 26> H 1.9712 0.8567 5.1231
| 27> H 2.8793 0.3264 4.2628
| 28> H -0.6193 -0.2856 6.9873
| 29> H 0.6765 0.204 6.8309
| 30> N 3.0525 -1.6586 7.3393
| 31> N 5.395 -0.1603 8.0667
| 32> C 2.7436 -2.6867 7.7708
| 33> C 6.2927 0.9418 8.3287
| 34> H 5.8224 -0.8567 7.9129
| 35> H 4.9143 -0.3264 8.7732
| 36> S 2.3234 -4.1396 8.3957
| 37> C 5.9908 1.8725 9.3103
| 38> C 7.4512 1.0788 7.57
| 39> C 6.8336 2.942 9.558
| 40> H 5.2388 1.8125 9.777
| 41> N 7.7905 0.137 6.6066
| 42> C 8.3031 2.1494 7.8477
| 43> C 7.9993 3.0731 8.828
| 44> H 6.6363 3.5609 10.2333
| 45> H 8.413 0.2856 6.0487
| 46> H 7.1171 -0.204 6.2051
| 47> H 9.1386 2.2088 7.3914
| 48> H 8.5203 3.7824 8.9948
| 49> *
| 50> 
| 51>                          ****END OF INPUT****
================================================================================

                       *****************************
                       * Geometry Optimization Run *
                       *****************************

Geometry optimization settings:
Update method            Update   .... BFGS
Choice of coordinates    CoordSys .... (2022) Redundant Internals
Initial Hessian          InHess   .... Almloef's Model
Max. no of cycles        MaxIter  .... 117

Convergence Tolerances:
Energy Change            TolE     ....  5.0000e-06 Eh
Max. Gradient            TolMAXG  ....  3.0000e-04 Eh/bohr
RMS Gradient             TolRMSG  ....  1.0000e-04 Eh/bohr
Max. Displacement        TolMAXD  ....  4.0000e-03 bohr
RMS Displacement         TolRMSD  ....  2.0000e-03 bohr
Strict Convergence                .... False

------------------------------------------------------------------------------
                        ORCA OPTIMIZATION COORDINATE SETUP
------------------------------------------------------------------------------

The optimization will be done in redundant internal coordinates (2022)
Making redundant internal coordinates   ...  (2022 redundants) done
Evaluating the initial hessian          ...  (Almloef) done
Evaluating the coordinates              ...  done
Calculating the B-matrix                .... done
Calculating the G-matrix                .... done
Diagonalizing the G-matrix              .... done
Small eigenvalue found = 3.449e-03
Small eigenvalue found = 5.111e-03
Small eigenvalue found = 6.710e-03
Small eigenvalue found = 1.189e-02
Small eigenvalue found = 1.236e-02
Small eigenvalue found = 1.778e-02
Small eigenvalue found = 2.103e-02
Small eigenvalue found = 2.652e-02
The first mode is                       ....   86
The number of degrees of freedom        ....  111

    -----------------------------------------------------------------
                    Redundant Internal Coordinates


    -----------------------------------------------------------------
         Definition                    Initial Value    Approx d2E/dq
    -----------------------------------------------------------------
      1. B(N   2,Cr  0)                  2.0343         0.530900   
      2. B(N   3,Cr  0)                  2.1607         0.333690   
      3. B(C   5,S   1)                  1.6365         0.681243   
      4. B(C   5,N   2)                  1.1570         1.317309   
      5. B(C   6,N   3)                  1.4453         0.456682   
      6. B(C   7,C   6)                  1.3860         0.634139   
      7. B(C   8,C   7)                  1.3840         0.638686   
      8. B(C   9,C   8)                  1.3817         0.644070   
      9. B(C  10,C   9)                  1.3808         0.646364   
     10. B(C  11,C  10)                  1.3961         0.610999   
     11. B(C  11,N   4)                  1.3893         0.560966   
     12. B(C  11,C   6)                  1.3917         0.620972   
     13. B(H  12,C   7)                  0.8871         0.758870   
     14. B(H  13,C   8)                  0.9370         0.631689   
     15. B(H  14,C   9)                  0.8958         0.735081   
     16. B(H  15,C  10)                  0.9537         0.594029   
     17. B(H  16,N   3)                  0.8314         0.833817   
     18. B(H  17,N   3)                  0.8705         0.722316   
     19. B(H  18,N   4)                  0.8490         0.781880   
     20. B(H  19,N   4)                  0.8550         0.764816   
     21. B(N  20,Cr  0)                  2.0343         0.530981   
     22. B(N  21,Cr  0)                  2.1607         0.333690   
     23. B(C  22,N  20)                  1.1570         1.317180   
     24. B(C  23,N  21)                  1.4454         0.456577   
     25. B(H  24,N  21)                  0.8314         0.833817   
     26. B(H  25,N  21)                  0.8705         0.722316   
     27. B(S  26,C  22)                  1.6365         0.681243   
     28. B(C  27,C  23)                  1.3860         0.634139   
     29. B(C  28,C  23)                  1.3916         0.621162   
     30. B(C  29,C  27)                  1.3840         0.638686   
     31. B(H  30,C  27)                  0.8871         0.758870   
     32. B(N  31,C  28)                  1.3893         0.560966   
     33. B(C  32,C  28)                  1.3961         0.610999   
     34. B(C  33,C  32)                  1.3808         0.646364   
     35. B(C  33,C  29)                  1.3816         0.644270   
     36. B(H  34,C  29)                  0.9370         0.631689   
     37. B(H  35,N  31)                  0.8490         0.781669   
     38. B(H  36,N  31)                  0.8550         0.764816   
     39. B(H  37,C  32)                  0.9538         0.593838   
     40. B(H  38,C  33)                  0.8958         0.735081   
     41. A(N   3,Cr  0,N  20)           93.5594         0.470770   
     42. A(N   2,Cr  0,N   3)           86.4426         0.470756   
     43. A(N   2,Cr  0,N  21)           93.5574         0.470756   
     44. A(N  20,Cr  0,N  21)           86.4406         0.470770   
     45. A(Cr  0,N   2,C   5)          170.3541         0.538943   
     46. A(H  16,N   3,H  17)          105.9124         0.368113   
     47. A(Cr  0,N   3,H  16)          106.6175         0.403787   
     48. A(C   6,N   3,H  16)          110.6690         0.380915   
     49. A(C   6,N   3,H  17)          109.9568         0.371582   
     50. A(Cr  0,N   3,C   6)          120.2630         0.407699   
     51. A(Cr  0,N   3,H  17)          102.2968         0.393723   
     52. A(C  11,N   4,H  18)          121.0700         0.390405   
     53. A(H  18,N   4,H  19)          109.7949         0.367663   
     54. A(C  11,N   4,H  19)          113.8071         0.388904   
     55. L(S   1,C   5,N   2,Cr  0, 2) 174.2138         0.532730   
     56. L(S   1,C   5,N   2,Cr  0, 1) 179.5664         0.532730   
     57. A(N   3,C   6,C   7)          120.3421         0.409980   
     58. A(C   7,C   6,C  11)          120.0897         0.435955   
     59. A(N   3,C   6,C  11)          119.5557         0.408459   
     60. A(C   6,C   7,C   8)          120.8657         0.438170   
     61. A(C   8,C   7,H  12)          118.3159         0.403520   
     62. A(C   6,C   7,H  12)          120.7872         0.403012   
     63. A(C   9,C   8,H  13)          119.7190         0.391303   
     64. A(C   7,C   8,H  13)          120.7415         0.390729   
     65. A(C   7,C   8,C   9)          119.5085         0.439401   
     66. A(C  10,C   9,H  14)          122.2736         0.402107   
     67. A(C   8,C   9,H  14)          117.8716         0.401855   
     68. A(C   8,C   9,C  10)          119.8189         0.440350   
     69. A(C   9,C  10,C  11)          121.3307         0.436183   
     70. A(C  11,C  10,H  15)          119.1492         0.383591   
     71. A(C   9,C  10,H  15)          119.3884         0.387366   
     72. A(C   6,C  11,C  10)          118.3635         0.433048   
     73. A(N   4,C  11,C  10)          120.5805         0.422458   
     74. A(N   4,C  11,C   6)          120.9721         0.423682   
     75. A(Cr  0,N  20,C  22)          170.3610         0.538949   
     76. A(H  24,N  21,H  25)          105.9124         0.368113   
     77. A(C  23,N  21,H  25)          109.9583         0.371568   
     78. A(Cr  0,N  21,H  25)          102.2968         0.393723   
     79. A(C  23,N  21,H  24)          110.6659         0.380899   
     80. A(Cr  0,N  21,H  24)          106.6175         0.403787   
     81. A(Cr  0,N  21,C  23)          120.2648         0.407682   
     82. L(N  20,C  22,S  26,Cr  0, 2) 174.1987         0.532720   
     83. L(N  20,C  22,S  26,Cr  0, 1) 179.5619         0.532720   
     84. A(C  27,C  23,C  28)          120.0907         0.435979   
     85. A(N  21,C  23,C  28)          119.5571         0.408465   
     86. A(N  21,C  23,C  27)          120.3396         0.409963   
     87. A(C  29,C  27,H  30)          118.3159         0.403520   
     88. A(C  23,C  27,H  30)          120.7872         0.403012   
     89. A(C  23,C  27,C  29)          120.8657         0.438170   
     90. A(N  31,C  28,C  32)          120.5805         0.422458   
     91. A(C  23,C  28,C  32)          118.3625         0.433072   
     92. A(C  23,C  28,N  31)          120.9730         0.423705   
     93. A(C  33,C  29,H  34)          119.7200         0.391324   
     94. A(C  27,C  29,H  34)          120.7415         0.390729   
     95. A(C  27,C  29,C  33)          119.5076         0.439425   
     96. A(H  35,N  31,H  36)          109.7987         0.367646   
     97. A(C  28,N  31,H  36)          113.8071         0.388904   
     98. A(C  28,N  31,H  35)          121.0689         0.390387   
     99. A(C  33,C  32,H  37)          119.3870         0.387345   
    100. A(C  28,C  32,H  37)          119.1505         0.383569   
    101. A(C  28,C  32,C  33)          121.3307         0.436183   
    102. A(C  29,C  33,H  38)          117.8707         0.401877   
    103. A(C  29,C  33,C  32)          119.8198         0.440374   
    104. A(C  32,C  33,H  38)          122.2736         0.402107   
    105. D(C   5,N   2,Cr  0,N  21)   -121.3501         0.002676   
    106. D(C   5,N   2,Cr  0,N   3)     58.6499         0.002676   
    107. D(C   6,N   3,Cr  0,N   2)    166.3077         0.002051   
    108. D(H  16,N   3,Cr  0,N   2)    -66.7785         0.002051   
    109. D(H  17,N   3,Cr  0,N  20)   -135.8064         0.002051   
    110. D(H  17,N   3,Cr  0,N   2)     44.1921         0.002051   
    111. D(C   6,N   3,Cr  0,N  20)    -13.6907         0.002051   
    112. D(H  16,N   3,Cr  0,N  20)    113.2230         0.002051   
    113. D(C  11,C   6,N   3,H  17)   -156.9919         0.017799   
    114. D(C   7,C   6,N   3,Cr  0)    -94.0150         0.017799   
    115. D(C  11,C   6,N   3,Cr  0)     84.7005         0.017799   
    116. D(C   7,C   6,N   3,H  17)     24.2927         0.017799   
    117. D(C  11,C   6,N   3,H  16)    -40.3293         0.017799   
    118. D(C   7,C   6,N   3,H  16)    140.9552         0.017799   
    119. D(C   8,C   7,C   6,N   3)    179.1261         0.027906   
    120. D(H  12,C   7,C   6,N   3)      1.1911         0.027906   
    121. D(C   8,C   7,C   6,C  11)      0.4176         0.027906   
    122. D(H  12,C   7,C   6,C  11)   -177.5174         0.027906   
    123. D(H  13,C   8,C   7,H  12)     -3.2166         0.028334   
    124. D(H  13,C   8,C   7,C   6)    178.7985         0.028334   
    125. D(C   9,C   8,C   7,C   6)      0.8263         0.028334   
    126. D(C   9,C   8,C   7,H  12)    178.8111         0.028334   
    127. D(H  14,C   9,C   8,H  13)      3.2240         0.028846   
    128. D(H  14,C   9,C   8,C   7)   -178.7828         0.028846   
    129. D(C  10,C   9,C   8,H  13)   -178.9088         0.028846   
    130. D(C  10,C   9,C   8,C   7)     -0.9156         0.028846   
    131. D(H  15,C  10,C   9,H  14)     -6.6673         0.029066   
    132. D(C  11,C  10,C   9,H  14)    177.5398         0.029066   
    133. D(C  11,C  10,C   9,C   8)     -0.2304         0.029066   
    134. D(H  15,C  10,C   9,C   8)    175.5626         0.029066   
    135. D(C   6,C  11,N   4,H  18)   -168.7379         0.025136   
    136. D(C   6,C  11,C  10,H  15)   -174.3538         0.025788   
    137. D(C   6,C  11,C  10,C   9)      1.4490         0.025788   
    138. D(N   4,C  11,C  10,H  15)      2.3469         0.025788   
    139. D(N   4,C  11,C  10,C   9)    178.1497         0.025788   
    140. D(C  10,C  11,C   6,C   7)     -1.5286         0.026688   
    141. D(C  10,C  11,C   6,N   3)    179.7527         0.026688   
    142. D(N   4,C  11,C   6,C   7)   -178.2158         0.026688   
    143. D(N   4,C  11,C   6,N   3)      3.0655         0.026688   
    144. D(C  10,C  11,N   4,H  19)    148.9134         0.025136   
    145. D(C  10,C  11,N   4,H  18)     14.6482         0.025136   
    146. D(C   6,C  11,N   4,H  19)    -34.4727         0.025136   
    147. D(C  22,N  20,N   2,C   5)    179.9903         0.001500   
    148. D(C  22,N  20,Cr  0,N  21)    -58.6651         0.002676   
    149. D(C  22,N  20,Cr  0,N   3)    121.3349         0.002676   
    150. D(H  25,N  21,N   3,C   6)    -57.8844         0.001500   
    151. D(H  24,N  21,N   3,H  17)    -69.0294         0.001500   
    152. D(H  24,N  21,N   3,H  16)   -180.0000         0.001500   
    153. D(C  23,N  21,N   3,H  17)     57.8814         0.001500   
    154. D(C  23,N  21,N   3,H  16)    -53.0892         0.001500   
    155. D(C  23,N  21,N   3,C   6)    179.9970         0.001500   
    156. D(H  25,N  21,Cr  0,N  20)    -44.1936         0.002051   
    157. D(H  25,N  21,Cr  0,N   2)    135.8079         0.002051   
    158. D(H  24,N  21,N   3,C   6)     53.0863         0.001500   
    159. D(H  24,N  21,Cr  0,N  20)     66.7770         0.002051   
    160. D(H  24,N  21,Cr  0,N   2)   -113.2215         0.002051   
    161. D(C  23,N  21,Cr  0,N  20)   -166.3123         0.002051   
    162. D(H  25,N  21,N   3,H  16)     69.0294         0.001500   
    163. D(C  23,N  21,Cr  0,N   2)     13.6893         0.002051   
    164. D(C  28,C  23,N  21,Cr  0)    -84.6955         0.017791   
    165. D(C  27,C  23,N  21,H  25)    -24.2948         0.017791   
    166. D(C  27,C  23,N  21,H  24)   -140.9563         0.017791   
    167. D(C  27,C  23,N  21,Cr  0)     94.0154         0.017791   
    168. D(C  28,C  23,N  21,H  25)    156.9944         0.017791   
    169. D(C  28,C  23,N  21,H  24)     40.3328         0.017791   
    170. D(H  30,C  27,C  23,C  28)    177.5150         0.027906   
    171. D(H  30,C  27,C  23,N  21)     -1.1889         0.027906   
    172. D(C  29,C  27,C  23,C  28)     -0.4200         0.027906   
    173. D(C  29,C  27,C  23,N  21)   -179.1239         0.027906   
    174. D(C  32,C  28,C  23,C  27)      1.5309         0.026705   
    175. D(C  32,C  28,C  23,N  21)   -179.7550         0.026705   
    176. D(N  31,C  28,C  23,C  27)    178.2157         0.026705   
    177. D(N  31,C  28,C  23,N  21)     -3.0702         0.026705   
    178. D(H  34,C  29,C  27,H  30)      3.2166         0.028334   
    179. D(H  34,C  29,C  27,C  23)   -178.7985         0.028334   
    180. D(C  33,C  29,C  27,H  30)   -178.8088         0.028334   
    181. D(C  33,C  29,C  27,C  23)     -0.8239         0.028334   
    182. D(H  36,N  31,C  28,C  32)   -148.9134         0.025136   
    183. D(H  36,N  31,C  28,C  23)     34.4751         0.025136   
    184. D(H  35,N  31,C  28,C  32)    -14.6430         0.025136   
    185. D(H  35,N  31,C  28,C  23)    168.7455         0.025136   
    186. D(H  37,C  32,C  28,N  31)     -2.3499         0.025788   
    187. D(H  37,C  32,C  28,C  23)    174.3485         0.025788   
    188. D(C  33,C  32,C  28,N  31)   -178.1497         0.025788   
    189. D(C  33,C  32,C  28,C  23)     -1.4513         0.025788   
    190. D(H  38,C  33,C  32,H  37)      6.6701         0.029066   
    191. D(H  38,C  33,C  32,C  28)   -177.5398         0.029066   
    192. D(C  29,C  33,C  32,H  37)   -175.5574         0.029066   
    193. D(C  29,C  33,C  32,C  28)      0.2327         0.029066   
    194. D(H  38,C  33,C  29,H  34)     -3.2218         0.028866   
    195. D(H  38,C  33,C  29,C  27)    178.7827         0.028866   
    196. D(C  32,C  33,C  29,H  34)    178.9088         0.028866   
    197. D(C  32,C  33,C  29,C  27)      0.9133         0.028866   
    -----------------------------------------------------------------

Number of atoms                         .... 39
Number of degrees of freedom            .... 197


         *************************************************************
         *                GEOMETRY OPTIMIZATION CYCLE   1            *
         *************************************************************
---------------------------------
CARTESIAN COORDINATES (ANGSTROEM)
---------------------------------
  Cr     3.896800    0.000000    6.518000
  S      5.470200    4.139600    4.640300
  N      4.741200    1.658600    5.696700
  N      2.398600    0.160300    4.969300
  N      0.003100   -0.137000    6.429400
  C      5.050000    2.686700    5.265200
  C      1.501000   -0.941800    4.707300
  C      1.802900   -1.872500    3.725700
  C      0.960100   -2.942000    3.478000
  C     -0.205700   -3.073100    4.208000
  C     -0.509500   -2.149400    5.188300
  C      0.342400   -1.078800    5.466000
  H      2.554900   -1.812500    3.259000
  H      1.157400   -3.560900    2.802700
  H     -0.726700   -3.782400    4.041200
  H     -1.344900   -2.208800    5.644600
  H      1.971200    0.856700    5.123100
  H      2.879300    0.326400    4.262800
  H     -0.619300   -0.285600    6.987300
  H      0.676500    0.204000    6.830900
  N      3.052500   -1.658600    7.339300
  N      5.395000   -0.160300    8.066700
  C      2.743600   -2.686700    7.770800
  C      6.292700    0.941800    8.328700
  H      5.822400   -0.856700    7.912900
  H      4.914300   -0.326400    8.773200
  S      2.323400   -4.139600    8.395700
  C      5.990800    1.872500    9.310300
  C      7.451200    1.078800    7.570000
  C      6.833600    2.942000    9.558000
  H      5.238800    1.812500    9.777000
  N      7.790500    0.137000    6.606600
  C      8.303100    2.149400    7.847700
  C      7.999300    3.073100    8.828000
  H      6.636300    3.560900   10.233300
  H      8.413000    0.285600    6.048700
  H      7.117100   -0.204000    6.205100
  H      9.138600    2.208800    7.391400
  H      8.520300    3.782400    8.994800

----------------------------
CARTESIAN COORDINATES (A.U.)
----------------------------
  NO LB      ZA    FRAG     MASS         X           Y           Z
   0 Cr   24.0000    0    52.000    7.363885    0.000000   12.317235
   1 S    16.0000    0    32.060   10.337180    7.822710    8.768896
   2 N     7.0000    0    14.007    8.959570    3.134300   10.765203
   3 N     7.0000    0    14.007    4.532697    0.302923    9.390616
   4 N     7.0000    0    14.007    0.005858   -0.258892   12.149805
   5 C     6.0000    0    12.011    9.543117    5.077127    9.949786
   6 C     6.0000    0    12.011    2.836479   -1.779744    8.895508
   7 C     6.0000    0    12.011    3.406987   -3.538512    7.040553
   8 C     6.0000    0    12.011    1.814326   -5.559574    6.572467
   9 C     6.0000    0    12.011   -0.388717   -5.807317    7.951968
  10 C     6.0000    0    12.011   -0.962815   -4.061777    9.804466
  11 C     6.0000    0    12.011    0.647042   -2.038637   10.329243
  12 H     1.0000    0     1.008    4.828061   -3.425129    6.158617
  13 H     1.0000    0     1.008    2.187169   -6.729126    5.296335
  14 H     1.0000    0     1.008   -1.373264   -7.147700    7.636761
  15 H     1.0000    0     1.008   -2.541493   -4.174027   10.666748
  16 H     1.0000    0     1.008    3.725028    1.618928    9.681256
  17 H     1.0000    0     1.008    5.441088    0.616807    8.055525
  18 H     1.0000    0     1.008   -1.170307   -0.539706   13.204083
  19 H     1.0000    0     1.008    1.278400    0.385504   12.908530
  20 N     7.0000    0    14.007    5.768389   -3.134300   13.869267
  21 N     7.0000    0    14.007   10.195072   -0.302923   15.243854
  22 C     6.0000    0    12.011    5.184653   -5.077127   14.684684
  23 C     6.0000    0    12.011   11.891480    1.779744   15.738962
  24 H     1.0000    0     1.008   11.002741   -1.618928   14.953214
  25 H     1.0000    0     1.008    9.286681   -0.616807   16.578945
  26 S    16.0000    0    32.060    4.390590   -7.822710   15.865574
  27 C     6.0000    0    12.011   11.320971    3.538512   17.593917
  28 C     6.0000    0    12.011   14.080727    2.038637   14.305227
  29 C     6.0000    0    12.011   12.913633    5.559574   18.062002
  30 H     1.0000    0     1.008    9.899897    3.425129   18.475852
  31 N     7.0000    0    14.007   14.721911    0.258892   12.484665
  32 C     6.0000    0    12.011   15.690585    4.061777   14.830004
  33 C     6.0000    0    12.011   15.116486    5.807317   16.682502
  34 H     1.0000    0     1.008   12.540790    6.729126   19.338134
  35 H     1.0000    0     1.008   15.898266    0.539706   11.430386
  36 H     1.0000    0     1.008   13.449370   -0.385504   11.725940
  37 H     1.0000    0     1.008   17.269451    4.174027   13.967722
  38 H     1.0000    0     1.008   16.101034    7.147700   16.997709

--------------------------------
INTERNAL COORDINATES (ANGSTROEM)
--------------------------------
 Cr     0   0   0     0.000000000000     0.00000000     0.00000000
 S      1   0   0     4.810159353909     0.00000000     0.00000000
 N      1   2   0     2.034330113330     5.72318114     0.00000000
 N      1   2   3     2.160733907727    83.29062128   236.81890118
 N      4   1   2     2.821116720379   102.12168604   232.20933274
 C      3   1   4     1.156952591941   170.35411107    58.64992606
 C      4   1   2     1.445321476351   120.26303219   171.10458404
 C      7   4   1     1.385959833473   120.34207952   265.98501543
 C      8   7   4     1.384014949341   120.86573176   179.12611665
 C      9   8   7     1.381729658797   119.50854185     0.82625348
 C     10   9   8     1.380762188069   119.81886789   359.08444720
 C      5   4   1     1.389334837251    60.34175897   243.33437918
 H      8   7   4     0.887081106777   120.78719259     1.19113813
 H      9   8   7     0.937013655183   120.74152465   178.79848241
 H     10   9   8     0.895750930784   117.87156202   181.21720523
 H     11  10   9     0.953745883346   119.38843044   175.56263557
 H      4   1   2     0.831443419602   106.61751886   298.01831640
 H      4   1   2     0.870519356476   102.29675321    48.98893722
 H      5   4   1     0.848950016196   168.84354190   343.82374424
 H      5   4   1     0.854956612934    62.10903725    29.12035113
 N      1   2   6     2.034288607843   174.27924511   176.45924265
 N      1   2   6     2.160733907727    96.70937872    53.28641058
 C     21   1   3     1.156979286764   170.36099326   338.96560367
 C     22   1   2     1.445383582306   120.26477797     8.89244032
 H     22   1   2     0.831443419602   106.61751886   241.98168360
 H     22   1   2     0.870519356476   102.29675321   131.01106278
 S     23  21   1     1.636455456161   179.22221924    58.64740310
 C     24  22   1     1.385959833473   120.33963797    94.01535960
 C     24  22   1     1.391587920327   119.55708460   275.30451756
 C     28  24  22     1.384014949341   120.86573176   180.87610973
 H     28  24  22     0.887081106777   120.78719259   358.81108825
 N     29  24  22     1.389334837251   120.97299886   356.92983712
 C     29  24  22     1.396078529310   118.36248370   180.24496629
 C     33  29  24     1.380762188069   121.33072175   358.54866279
 H     30  28  24     0.937013655183   120.74152465   181.20151759
 H     32  29  24     0.849023333013   121.06894368   168.74554930
 H     32  29  24     0.854956612934   113.80710148    34.47511352
 H     33  29  24     0.953833476032   119.15046304   174.34851364
 H     34  33  29     0.895750930784   122.27356033   182.46024519

---------------------------
INTERNAL COORDINATES (A.U.)
---------------------------
 Cr     0   0   0     0.000000000000     0.00000000     0.00000000
 S      1   0   0     9.089883839408     0.00000000     0.00000000
 N      1   2   0     3.844326780182     5.72318114     0.00000000
 N      1   2   3     4.083195333881    83.29062128   236.81890118
 N      4   1   2     5.331137993342   102.12168604   232.20933274
 C      3   1   4     2.186323548700   170.35411107    58.64992606
 C      4   1   2     2.731261765777   120.26303219   171.10458404
 C      7   4   1     2.619084517879   120.34207952   265.98501543
 C      8   7   4     2.615409219508   120.86573176   179.12611665
 C      9   8   7     2.611090646243   119.50854185     0.82625348
 C     10   9   8     2.609262391524   119.81886789   359.08444720
 C      5   4   1     2.625462350721    60.34175897   243.33437918
 H      8   7   4     1.676340350384   120.78719259     1.19113813
 H      9   8   7     1.770699192041   120.74152465   178.79848241
 H     10   9   8     1.692723943386   117.87156202   181.21720523
 H     11  10   9     1.802318520879   119.38843044   175.56263557
 H      4   1   2     1.571200358899   106.61751886   298.01831640
 H      4   1   2     1.645043178018   102.29675321    48.98893722
 H      5   4   1     1.604283031999   168.84354190   343.82374424
 H      5   4   1     1.615633854831    62.10903725    29.12035113
 N      1   2   6     3.844248346179   174.27924511   176.45924265
 N      1   2   6     4.083195333881    96.70937872    53.28641058
 C     21   1   3     2.186373994603   170.36099326   338.96560367
 C     22   1   2     2.731379129025   120.26477797     8.89244032
 H     22   1   2     1.571200358899   106.61751886   241.98168360
 H     22   1   2     1.645043178018   102.29675321   131.01106278
 S     23  21   1     3.092452642506   179.22221924    58.64740310
 C     24  22   1     2.619084517879   120.33963797    94.01535960
 C     24  22   1     2.629720060691   119.55708460   275.30451756
 C     28  24  22     2.615409219508   120.86573176   180.87610973
 H     28  24  22     1.676340350384   120.78719259   358.81108825
 N     29  24  22     2.625462350721   120.97299886   356.92983712
 C     29  24  22     2.638206081843   118.36248370   180.24496629
 C     33  29  24     2.609262391524   121.33072175   358.54866279
 H     30  28  24     1.770699192041   120.74152465   181.20151759
 H     32  29  24     1.604421580703   121.06894368   168.74554930
 H     32  29  24     1.615633854831   113.80710148    34.47511352
 H     33  29  24     1.802484047067   119.15046304   174.34851364
 H     34  33  29     1.692723943386   122.27356033   182.46024519

---------------------
BASIS SET INFORMATION
---------------------
There are 5 groups of distinct atoms

 Group   1 Type Cr  : 17s11p7d1f contracted to 6s4p4d1f pattern {842111/6311/4111/1}
 Group   2 Type S   : 14s9p3d1f contracted to 5s5p2d1f pattern {73211/51111/21/1}
 Group   3 Type N   : 11s6p2d1f contracted to 5s3p2d1f pattern {62111/411/11/1}
 Group   4 Type C   : 11s6p2d1f contracted to 5s3p2d1f pattern {62111/411/11/1}
 Group   5 Type H   : 5s1p contracted to 3s1p pattern {311/1}

Atom   0Cr   basis set group =>   1
Atom   1S    basis set group =>   2
Atom   2N    basis set group =>   3
Atom   3N    basis set group =>   3
Atom   4N    basis set group =>   3
Atom   5C    basis set group =>   4
Atom   6C    basis set group =>   4
Atom   7C    basis set group =>   4
Atom   8C    basis set group =>   4
Atom   9C    basis set group =>   4
Atom  10C    basis set group =>   4
Atom  11C    basis set group =>   4
Atom  12H    basis set group =>   5
Atom  13H    basis set group =>   5
Atom  14H    basis set group =>   5
Atom  15H    basis set group =>   5
Atom  16H    basis set group =>   5
Atom  17H    basis set group =>   5
Atom  18H    basis set group =>   5
Atom  19H    basis set group =>   5
Atom  20N    basis set group =>   3
Atom  21N    basis set group =>   3
Atom  22C    basis set group =>   4
Atom  23C    basis set group =>   4
Atom  24H    basis set group =>   5
Atom  25H    basis set group =>   5
Atom  26S    basis set group =>   2
Atom  27C    basis set group =>   4
Atom  28C    basis set group =>   4
Atom  29C    basis set group =>   4
Atom  30H    basis set group =>   5
Atom  31N    basis set group =>   3
Atom  32C    basis set group =>   4
Atom  33C    basis set group =>   4
Atom  34H    basis set group =>   5
Atom  35H    basis set group =>   5
Atom  36H    basis set group =>   5
Atom  37H    basis set group =>   5
Atom  38H    basis set group =>   5
---------------------------------
AUXILIARY/J BASIS SET INFORMATION
---------------------------------
There are 5 groups of distinct atoms

 Group   1 Type Cr  : 19s5p5d3f3g contracted to 8s5p5d2f3g pattern {121111111/11111/11111/21/111}
 Group   2 Type S   : 14s5p5d2f1g contracted to 8s4p3d1f1g pattern {71111111/2111/311/2/1}
 Group   3 Type N   : 12s5p4d2f1g contracted to 6s4p3d1f1g pattern {711111/2111/211/2/1}
 Group   4 Type C   : 12s5p4d2f1g contracted to 6s4p3d1f1g pattern {711111/2111/211/2/1}
 Group   5 Type H   : 5s2p1d contracted to 3s1p1d pattern {311/2/1}

Atom   0Cr   basis set group =>   1
Atom   1S    basis set group =>   2
Atom   2N    basis set group =>   3
Atom   3N    basis set group =>   3
Atom   4N    basis set group =>   3
Atom   5C    basis set group =>   4
Atom   6C    basis set group =>   4
Atom   7C    basis set group =>   4
Atom   8C    basis set group =>   4
Atom   9C    basis set group =>   4
Atom  10C    basis set group =>   4
Atom  11C    basis set group =>   4
Atom  12H    basis set group =>   5
Atom  13H    basis set group =>   5
Atom  14H    basis set group =>   5
Atom  15H    basis set group =>   5
Atom  16H    basis set group =>   5
Atom  17H    basis set group =>   5
Atom  18H    basis set group =>   5
Atom  19H    basis set group =>   5
Atom  20N    basis set group =>   3
Atom  21N    basis set group =>   3
Atom  22C    basis set group =>   4
Atom  23C    basis set group =>   4
Atom  24H    basis set group =>   5
Atom  25H    basis set group =>   5
Atom  26S    basis set group =>   2
Atom  27C    basis set group =>   4
Atom  28C    basis set group =>   4
Atom  29C    basis set group =>   4
Atom  30H    basis set group =>   5
Atom  31N    basis set group =>   3
Atom  32C    basis set group =>   4
Atom  33C    basis set group =>   4
Atom  34H    basis set group =>   5
Atom  35H    basis set group =>   5
Atom  36H    basis set group =>   5
Atom  37H    basis set group =>   5
Atom  38H    basis set group =>   5


           ************************************************************
           *        Program running with 16 parallel MPI-processes    *
           *              working on a common directory               *
           ************************************************************
------------------------------------------------------------------------------
                             ORCA STARTUP CALCULATIONS
                           -- RI-GTO INTEGRALS CHOSEN --
------------------------------------------------------------------------------
------------------------------------------------------------------------------
                   ___                                                        
                  /   \      - P O W E R E D   B Y -                         
                 /     \                                                     
                 |  |  |   _    _      __       _____    __    __             
                 |  |  |  | |  | |    /  \     |  _  \  |  |  /  |          
                  \  \/   | |  | |   /    \    | | | |  |  | /  /          
                 / \  \   | |__| |  /  /\  \   | |_| |  |  |/  /          
                |  |  |   |  __  | /  /__\  \  |    /   |      \           
                |  |  |   | |  | | |   __   |  |    \   |  |\   \          
                \     /   | |  | | |  |  |  |  | |\  \  |  | \   \       
                 \___/    |_|  |_| |__|  |__|  |_| \__\ |__|  \__/        
                                                                              
                      - O R C A' S   B I G   F R I E N D -                    
                                      &                                       
                       - I N T E G R A L  F E E D E R -                       
                                                                              
 v1 FN, 2020, v2 2021, v3 2022-2024                                           
------------------------------------------------------------------------------


----------------------
SHARK INTEGRAL PACKAGE
----------------------

Number of atoms                             ...     39
Number of basis functions                   ...    835
Number of shells                            ...    325
Maximum angular momentum                    ...      3
Integral batch strategy                     ... SHARK/LIBINT Hybrid
RI-J (if used) integral strategy            ... SPLIT-RIJ (Revised 2003 algorithm where possible)
Printlevel                                  ...      1
Contraction scheme used                     ... SEGMENTED contraction
Prescreening option                         ... SCHWARTZ
   Thresh                                   ... 2.500e-11
   Tcut                                     ... 2.500e-12
   Tpresel                                  ... 2.500e-12 
Coulomb Range Separation                    ... NOT USED
Exchange Range Separation                   ... NOT USED
Multipole approximations                    ... NOT USED
Finite Nucleus Model                        ... NOT USED
CABS basis                                  ... NOT available
Auxiliary Coulomb fitting basis             ... AVAILABLE
   # of basis functions in Aux-J            ...   1347
   # of shells in Aux-J                     ...    437
   Maximum angular momentum in Aux-J        ...      4
Auxiliary J/K fitting basis                 ... NOT available
Auxiliary Correlation fitting basis         ... NOT available
Auxiliary 'external' fitting basis          ... NOT available

Checking pre-screening integrals            ... done (  0.0 sec) Dimension = 325
Check shell pair data                       ... done (  0.0 sec)
Shell pair information
Shell pair cut-off parameter TPreSel        ...   2.5e-12
Total number of shell pairs                 ...     52975
Shell pairs after pre-screening             ...     34206
Total number of primitive shell pairs       ...    172610
Primitive shell pairs kept                  ...     71327
          la=0 lb=0:   8433 shell pairs
          la=1 lb=0:   9872 shell pairs
          la=1 lb=1:   2931 shell pairs
          la=2 lb=0:   4992 shell pairs
          la=2 lb=1:   2948 shell pairs
          la=2 lb=2:    756 shell pairs
          la=3 lb=0:   2156 shell pairs
          la=3 lb=1:   1314 shell pairs
          la=3 lb=2:    648 shell pairs
          la=3 lb=3:    156 shell pairs

Calculating one electron integrals          ... done (  0.0 sec)
done (  0.2 sec)
Calculating Nuclear repulsion               ... done (  0.0 sec) ENN=   2461.309803703402 Eh

Diagonalization of the overlap matrix:
Smallest eigenvalue                        ... 6.569e-06
Time for diagonalization                   ...    0.121 sec
Threshold for overlap eigenvalues          ... 1.000e-07
Number of eigenvalues below threshold      ... 0
Time for construction of square roots      ...    0.087 sec
Total time needed                          ...    0.232 sec

-------------------
DFT GRID GENERATION
-------------------

General Integration Accuracy     IntAcc      ... 4.959
Radial Grid Type                 RadialGrid  ... OptM3 with GC (2021)
Angular Grid (max. ang.)         AngularGrid ... 6 (Lebedev-590)
Angular grid pruning method      GridPruning ... 4 (adaptive)
Weight generation scheme         WeightScheme... mBecke (2022)
Basis function cutoff            BFCut       ... 1.0000e-11
Integration weight cutoff        WCut        ... 1.0000e-14
Partially contracted basis set               ... off
Rotationally invariant grid construction     ... off
Angular grids for H and He will be reduced by one unit
Core-polarized basis detected: some atoms will have their core
                               angular grid increased.

Total number of grid points                  ...   479479
Total number of batches                      ...     7514
Average number of points per batch           ...       63
Average number of grid points per atom       ...    12294

--------------------
COSX GRID GENERATION
--------------------

GRIDX 1
-------
General Integration Accuracy     IntAcc      ... 4.020
Radial Grid Type                 RadialGrid  ... OptM3 with GC (2021)
Angular Grid (max. ang.)         AngularGrid ... 2 (Lebedev-110)
Angular grid pruning method      GridPruning ... 4 (adaptive)
Weight generation scheme         WeightScheme... mBecke (2022)
Basis function cutoff            BFCut       ... 1.0000e-11
Integration weight cutoff        WCut        ... 1.0000e-14
Partially contracted basis set               ... on
Rotationally invariant grid construction     ... off
Angular grids for H and He will be reduced by one unit
Core-polarized basis detected: some atoms will have their core
                               angular grid increased.

Total number of grid points                  ...    56242
Total number of batches                      ...      460
Average number of points per batch           ...      122
Average number of grid points per atom       ...     1442
UseSFitting                                  ... on

GRIDX 2
-------
General Integration Accuracy     IntAcc      ... 4.338
Radial Grid Type                 RadialGrid  ... OptM3 with GC (2021)
Angular Grid (max. ang.)         AngularGrid ... 3 (Lebedev-194)
Angular grid pruning method      GridPruning ... 4 (adaptive)
Weight generation scheme         WeightScheme... mBecke (2022)
Basis function cutoff            BFCut       ... 1.0000e-11
Integration weight cutoff        WCut        ... 1.0000e-14
Partially contracted basis set               ... on
Rotationally invariant grid construction     ... off
Angular grids for H and He will be reduced by one unit
Core-polarized basis detected: some atoms will have their core
                               angular grid increased.

Total number of grid points                  ...   117869
Total number of batches                      ...      944
Average number of points per batch           ...      124
Average number of grid points per atom       ...     3022
UseSFitting                                  ... on

GRIDX 3
-------
General Integration Accuracy     IntAcc      ... 4.871
Radial Grid Type                 RadialGrid  ... OptM3 with GC (2021)
Angular Grid (max. ang.)         AngularGrid ... 4 (Lebedev-302)
Angular grid pruning method      GridPruning ... 4 (adaptive)
Weight generation scheme         WeightScheme... mBecke (2022)
Basis function cutoff            BFCut       ... 1.0000e-11
Integration weight cutoff        WCut        ... 1.0000e-14
Partially contracted basis set               ... on
Rotationally invariant grid construction     ... off
Angular grids for H and He will be reduced by one unit
Core-polarized basis detected: some atoms will have their core
                               angular grid increased.

Total number of grid points                  ...   219524
Total number of batches                      ...     1735
Average number of points per batch           ...      126
Average number of grid points per atom       ...     5629
UseSFitting                                  ... on
Initializing property integral containers    ... done (  0.0 sec)

SHARK setup successfully completed in   9.0 seconds

Maximum memory used throughout the entire STARTUP-calculation: 142.5 MB


           ************************************************************
           *        Program running with 16 parallel MPI-processes    *
           *              working on a common directory               *
           ************************************************************
-------------------------------------------------------------------------------
                                 ORCA GUESS
                   Start orbitals & Density for SCF / CASSCF
-------------------------------------------------------------------------------

------------
SCF SETTINGS
------------
Hamiltonian:
 Density Functional     Method          .... DFT(GTOs)
 Exchange Functional    Exchange        .... PBE
   PBE kappa parameter   XKappa         ....  0.804000
   PBE mue parameter    XMuePBE         ....  0.219520
 Correlation Functional Correlation     .... PBE
   PBE beta parameter  CBetaPBE         ....  0.066725
 LDA part of GGA corr.  LDAOpt          .... PW91-LDA
 Gradients option       PostSCFGGA      .... off
 Hybrid DFT is turned on
   Fraction HF Exchange ScalHFX         ....  0.250000
   Scaling of DF-GGA-X  ScalDFX         ....  0.750000
   Scaling of DF-GGA-C  ScalDFC         ....  1.000000
   Scaling of DF-LDA-C  ScalLDAC        ....  1.000000
   Perturbative correction              ....  0.000000
   NL short-range parameter             ....  6.900000
 RI-approximation to the Coulomb term is turned on
   Number of AuxJ basis functions       .... 1347
   RIJ-COSX (HFX calculated with COS-X)).... on


General Settings:
 Integral files         IntName         .... SOFXAM-S5
 Hartree-Fock type      HFTyp           .... UHF
 Total Charge           Charge          ....    0
 Multiplicity           Mult            ....    3
 Number of Electrons    NEL             ....  198
 Basis Dimension        Dim             ....  835
 Nuclear Repulsion      ENuc            ....   2461.3098037034 Eh

Convergence Acceleration:
 AO-DIIS                CNVDIIS         .... on
   Start iteration      DIISMaxIt       ....    12
   Startup error        DIISStart       ....  0.200000
   # of expansion vecs  DIISMaxEq       ....     5
   Bias factor          DIISBfac        ....   1.050
   Max. coefficient     DIISMaxC        ....  10.000
 MO-DIIS                CNVKDIIS        .... off
 Trust-Rad. Augm. Hess. CNVTRAH         .... auto
   Auto Start mean grad. ratio tolernc. ....  1.125000
   Auto Start start iteration           ....    50
   Auto Start num. interpolation iter.  ....    10
   Max. Number of Micro iterations      ....    24
   Max. Number of Macro iterations      .... Maxiter - #DIIS iter
   Number of Davidson start vectors     ....     2
   Converg. threshold    (grad. norm)   ....   1.000e-05
   Grad. Scal. Fac. for Micro threshold ....   0.100
   Minimum threshold for Micro iter.    ....   1.000e-02
   NR start threshold (gradient norm)   ....   1.000e-04
   Initial trust radius                 ....   0.400
   Minimum AH scaling param. (alpha)    ....   1.000
   Maximum AH scaling param. (alpha)    .... 1000.000
   Quad. conv. algorithm                .... NR
   White noise on init. David. guess    .... on
   Maximum white noise                  ....   0.010
   Pseudo random numbers                .... off
   Inactive MOs                         .... canonical
   Orbital update algorithm             .... Taylor
   Preconditioner                       .... Diag
   Full preconditioner red. dimension   ....   250
 SOSCF                  CNVSOSCF        .... on
   Start iteration      SOSCFMaxIt      ....   150
   Startup grad/error   SOSCFStart      ....  0.003300
   Hessian update       SOSCFHessUp     .... L-BFGS
 Level Shifting         CNVShift        .... on
   Level shift para.    LevelShift      ....    0.2500
   Turn off err/grad.   ShiftErr        ....    0.0010
 Zerner damping         CNVZerner       .... off
 Static damping         CNVDamp         .... on
   Fraction old density DampFac         ....    0.7000
   Max. Damping (<1)    DampMax         ....    0.9800
   Min. Damping (>=0)   DampMin         ....    0.0000
   Turn off err/grad.   DampErr         ....    0.1000

SCF Procedure:
 Maximum # iterations   MaxIter         ....   125
 SCF integral mode      SCFMode         .... Direct
   Integral package                     .... SHARK and LIBINT hybrid scheme
 Reset frequency        DirectResetFreq ....    20
 Integral Threshold     Thresh          ....  2.500e-11 Eh
 Primitive CutOff       TCut            ....  2.500e-12 Eh

Convergence Tolerance:
 Convergence Check Mode ConvCheckMode   .... Total+1el-Energy
 Convergence forced     ConvForced      .... 0
 Energy Change          TolE            ....  1.000e-08 Eh
 1-El. energy change                    ....  1.000e-05 Eh
 Orbital Gradient       TolG            ....  1.000e-05
 Orbital Rotation angle TolX            ....  1.000e-05
 DIIS Error             TolErr          ....  5.000e-07

------------------------------
INITIAL GUESS: MODEL POTENTIAL
------------------------------
Loading Hartree-Fock densities                     ... done
Calculating cut-offs                               ... done
Initializing the effective Hamiltonian             ... done
Setting up the integral package (SHARK)            ... done
done (   0.2 sec)
Making the grid                                    ... done (   0.3 sec)
Mapping shells                                     ... done
Starting the XC term evaluation                    ... done (   0.2 sec)
  promolecular density results
     # of electrons  =    198.027468559
     EX              =   -213.178792702
     EC              =     -7.052297708
     EX+EC           =   -220.231090410
Transforming the Hamiltonian                       ... done (   0.1 sec)
done (   0.2 sec)
Back transforming the eigenvectors                 ... done (   0.1 sec)
done
                      ------------------
                      INITIAL GUESS DONE (   1.2 sec)
                      ------------------
             **** ENERGY FILE WAS UPDATED (SOFXAM-S5.en.tmp) ****
Finished Guess after   1.7 sec
Maximum memory used throughout the entire GUESS-calculation: 65.8 MB


           ************************************************************
           *        Program running with 16 parallel MPI-processes    *
           *              working on a common directory               *
           ************************************************************

-------------------------------------------------------------------------------------------
                                      ORCA LEAN-SCF
                              memory conserving SCF solver
-------------------------------------------------------------------------------------------

----------------------------------------D-I-I-S--------------------------------------------
Iteration    Energy (Eh)           Delta-E    RMSDP     MaxDP     DIISErr   Damp  Time(sec)
-------------------------------------------------------------------------------------------
               ***  Starting incremental Fock matrix formation  ***
    1    -2709.9686440400282663     0.00e+00  7.27e-04  7.95e-02  1.45e-01  0.700  16.4
Warning: op=0 Small HOMO/LUMO gap (   0.042) - skipping pre-diagonalization
         Will do a full diagonalization
    2    -2710.4075881205853875    -4.39e-01  7.98e-04  6.26e-02  6.94e-02  0.700   9.8
                               ***Turning on AO-DIIS***
    3    -2710.5806285712342287    -1.73e-01  2.95e-04  2.08e-02  2.77e-02  0.700   8.6
    4    -2710.6864444927850855    -1.06e-01  5.41e-04  4.55e-02  1.50e-02  0.000   8.2
    5    -2710.9203582859163362    -2.34e-01  2.06e-04  2.06e-02  4.18e-03  0.000   8.4
    6    -2710.9219640344144864    -1.61e-03  8.63e-05  9.33e-03  5.26e-03  0.000   7.4
                              *** Initializing SOSCF ***
---------------------------------------S-O-S-C-F--------------------------------------
Iteration    Energy (Eh)           Delta-E    RMSDP     MaxDP     MaxGrad    Time(sec)
--------------------------------------------------------------------------------------
    7    -2710.9224101936169973    -4.46e-04  3.80e-05  3.40e-03  2.55e-03     7.8
               *** Restarting incremental Fock matrix formation ***
    8    -2710.9226573319692761    -2.47e-04  4.39e-05  6.02e-03  3.17e-03    15.2
               *** Scaled step length from 0.255505 to 0.200000 ***
    9    -2710.9230207507753221    -3.63e-04  2.18e-04  2.67e-02  3.50e-03    10.9
               *** Scaled step length from 8.459480 to 0.200000 ***
   10    -2710.9250840871709443    -2.06e-03  2.10e-04  2.81e-02  5.86e-03    12.4
               *** Scaled step length from 0.562787 to 0.200000 ***
   11    -2710.9268704692985921    -1.79e-03  2.05e-04  2.46e-02  1.08e-02    12.0
               *** Scaled step length from 0.229584 to 0.200000 ***
   12    -2710.9283190418691447    -1.45e-03  2.00e-04  2.33e-02  1.68e-02    12.1
               *** Scaled step length from 0.400697 to 0.200000 ***
   13    -2710.9304516624724783    -2.13e-03  1.93e-04  2.60e-02  2.06e-02    11.9
               *** Scaled step length from 0.549123 to 0.200000 ***
   14    -2710.9339587975273389    -3.51e-03  2.04e-04  3.48e-02  2.28e-02    11.8
               *** Scaled step length from 0.413164 to 0.200000 ***
   15    -2710.9390421817106471    -5.08e-03  2.28e-04  4.36e-02  2.11e-02    11.8
               *** Scaled step length from 0.333541 to 0.200000 ***
   16    -2710.9465478277315924    -7.51e-03  2.45e-04  4.18e-02  1.56e-02    11.9
               *** Scaled step length from 0.420070 to 0.200000 ***
   17    -2710.9541319478357764    -7.58e-03  2.21e-04  2.98e-02  8.35e-03    12.2
               *** Scaled step length from 0.736742 to 0.200000 ***
   18    -2710.9605670295768505    -6.44e-03  2.00e-04  3.72e-02  1.01e-02    12.8
               *** Scaled step length from 0.413702 to 0.200000 ***
   19    -2710.9657866832149011    -5.22e-03  1.79e-04  3.60e-02  1.02e-02    12.9
   20    -2710.9699109150151344    -4.12e-03  1.53e-04  2.24e-02  1.30e-02    12.6
   21    -2710.9731538533751518    -3.24e-03  1.67e-04  1.81e-02  8.29e-03    12.7
   22    -2710.9750832670642922    -1.93e-03  7.89e-05  9.99e-03  2.94e-03    13.0
   23    -2710.9754893005738268    -4.06e-04  5.39e-05  1.12e-02  2.23e-03    12.4
   24    -2710.9757030088576357    -2.14e-04  4.31e-05  6.33e-03  1.62e-03    11.3
   25    -2710.9758814981587420    -1.78e-04  7.70e-05  1.51e-02  1.02e-03    11.2
   26    -2710.9761187755357241    -2.37e-04  1.30e-04  2.89e-02  1.04e-03    11.2
   27    -2710.9763366893994316    -2.18e-04  3.84e-05  8.29e-03  1.20e-03    11.3
               *** Restarting incremental Fock matrix formation ***
   28    -2710.9764411451851629    -1.04e-04  3.26e-05  4.51e-03  8.81e-04    15.4
   29    -2710.9765104214302482    -6.93e-05  2.75e-05  4.40e-03  7.73e-04    10.6
   30    -2710.9765713540982688    -6.09e-05  3.91e-05  6.63e-03  9.91e-04     9.8
   31    -2710.9766258824411125    -5.45e-05  6.06e-05  1.02e-02  6.77e-04    10.4
   32    -2710.9766866394866156    -6.08e-05  7.32e-05  1.25e-02  7.92e-04    10.6
   33    -2710.9767833945916209    -9.68e-05  1.07e-04  1.84e-02  1.16e-03    10.4
               *** Scaled step length from 0.241075 to 0.200000 ***
   34    -2710.9769458427108475    -1.62e-04  1.78e-04  3.13e-02  1.35e-03    10.5
   35    -2710.9771506922761546    -2.05e-04  1.01e-04  1.87e-02  1.50e-03    11.0
   36    -2710.9772701295069055    -1.19e-04  5.70e-05  9.51e-03  8.30e-04    10.7
   37    -2710.9773147745436290    -4.46e-05  4.27e-05  7.37e-03  4.71e-04    10.3
   38    -2710.9773242653718626    -9.49e-06  7.83e-06  1.27e-03  3.40e-04    10.0
   39    -2710.9773305768267164    -6.31e-06  6.31e-06  5.92e-04  7.57e-05     8.9
   40    -2710.9773313027317272    -7.26e-07  6.48e-06  8.01e-04  4.70e-05     8.5
   41    -2710.9773316397004237    -3.37e-07  5.50e-06  5.86e-04  2.90e-05     8.6
   42    -2710.9773317356757616    -9.60e-08  2.30e-06  2.96e-04  1.29e-05     8.4
   43    -2710.9773317821127421    -4.64e-08  3.41e-06  4.07e-04  8.53e-06     7.2
   44    -2710.9773317666958974     1.54e-08  5.37e-06  6.64e-04  7.07e-06     7.0
   45    -2710.9773317235367358     4.32e-08  4.62e-06  5.58e-04  7.66e-06     7.1
   46    -2710.9773317248291278    -1.29e-09  4.11e-06  3.40e-04  6.61e-06     6.9
                 **** Energy Check signals convergence ****

               *****************************************************
               *                     SUCCESS                       *
               *           SCF CONVERGED AFTER  46 CYCLES          *
               *****************************************************

 done (   21.151 sec)
Old exchange energy                            :    -54.209875231 Eh
New exchange energy                            :    -54.209878447 Eh
Exchange energy change after final integration :     -0.000003215 Eh
Total energy after final integration           :  -2710.977334940 Eh
             **** ENERGY FILE WAS UPDATED (SOFXAM-S5.en.tmp) ****

----------------
TOTAL SCF ENERGY
----------------

Total Energy       :      -2710.97733494029353 Eh          -73769.44365 eV

Components:
Nuclear Repulsion  :       2461.30980370340239 Eh           66975.64473 eV
Electronic Energy  :      -5172.28713542823152 Eh         -140745.08830 eV
One Electron Energy:      -8615.44768757299425 Eh         -234438.25019 eV
Two Electron Energy:       3443.16055214476273 Eh           93693.16189 eV

Virial components:
Potential Energy   :      -5421.03391937528431 Eh         -147513.83240 eV
Kinetic Energy     :       2710.05658443499124 Eh           73744.38875 eV
Virial Ratio       :          2.00033975324006

DFT components:
N(Alpha)           :      100.000016518547 electrons
N(Beta)            :       98.000017697935 electrons
N(Total)           :      198.000034216482 electrons
E(X)               :     -162.110074453070 Eh       
E(C)               :       -7.058506346852 Eh       
E(XC)              :     -169.168580799922 Eh       

---------------
SCF CONVERGENCE
---------------

  Last Energy change         ...    1.2924e-09  Tolerance :   1.0000e-08
  Last MAX-Density change    ...    3.3950e-04  Tolerance :   1.0000e-07
  Last RMS-Density change    ...    4.1123e-06  Tolerance :   5.0000e-09
  Last DIIS Error            ...    2.5472e-03  Tolerance :   5.0000e-07
  Last Orbital Gradient      ...    6.6123e-06  Tolerance :   1.0000e-05
  Last Orbital Rotation      ...    1.7283e-04  Tolerance :   1.0000e-05


----------------------
UHF SPIN CONTAMINATION
----------------------

Warning: in a DFT calculation there is little theoretical justification to 
         calculate <S**2> as in Hartree-Fock theory. We will do it anyways
         but you should keep in mind that the values have only limited relevance

Expectation value of <S**2>     :     3.008109
Ideal value S*(S+1) for S=1.0   :     2.000000
Deviation                       :     1.008109

----------------
ORBITAL ENERGIES
----------------
                 SPIN UP ORBITALS
  NO   OCC          E(Eh)            E(eV) 
   0   1.0000    -216.017357     -5878.1311 
   1   1.0000     -88.982126     -2421.3268 
   2   1.0000     -88.982118     -2421.3265 
   3   1.0000     -24.844583      -676.0555 
   4   1.0000     -21.105924      -574.3214 
   5   1.0000     -21.105001      -574.2963 
   6   1.0000     -21.089353      -573.8705 
   7   1.0000     -14.431451      -392.6998 
   8   1.0000     -14.431443      -392.6995 
   9   1.0000     -14.378192      -391.2505 
  10   1.0000     -14.378188      -391.2504 
  11   1.0000     -14.372259      -391.0891 
  12   1.0000     -14.372257      -391.0890 
  13   1.0000     -10.286852      -279.9195 
  14   1.0000     -10.286833      -279.9189 
  15   1.0000     -10.285066      -279.8709 
  16   1.0000     -10.285046      -279.8703 
  17   1.0000     -10.284360      -279.8517 
  18   1.0000     -10.284343      -279.8512 
  19   1.0000     -10.222046      -278.1560 
  20   1.0000     -10.222043      -278.1559 
  21   1.0000     -10.220355      -278.1100 
  22   1.0000     -10.220352      -278.1099 
  23   1.0000     -10.212728      -277.9025 
  24   1.0000     -10.212727      -277.9024 
  25   1.0000     -10.211677      -277.8739 
  26   1.0000     -10.211674      -277.8738 
  27   1.0000      -7.960677      -216.6210 
  28   1.0000      -7.960669      -216.6208 
  29   1.0000      -5.897713      -160.4849 
  30   1.0000      -5.897705      -160.4847 
  31   1.0000      -5.891521      -160.3164 
  32   1.0000      -5.891513      -160.3162 
  33   1.0000      -5.891347      -160.3117 
  34   1.0000      -5.891339      -160.3115 
  35   1.0000      -2.983678       -81.1900 
  36   1.0000      -1.931624       -52.5622 
  37   1.0000      -1.929307       -52.4991 
  38   1.0000      -1.896078       -51.5949 
  39   1.0000      -1.051530       -28.6136 
  40   1.0000      -1.050080       -28.5741 
  41   1.0000      -1.001726       -27.2583 
  42   1.0000      -1.001581       -27.2544 
  43   1.0000      -0.943623       -25.6773 
  44   1.0000      -0.942446       -25.6453 
  45   1.0000      -0.895289       -24.3621 
  46   1.0000      -0.895154       -24.3584 
  47   1.0000      -0.801467       -21.8090 
  48   1.0000      -0.801335       -21.8054 
  49   1.0000      -0.791179       -21.5291 
  50   1.0000      -0.791029       -21.5250 
  51   1.0000      -0.741642       -20.1811 
  52   1.0000      -0.741142       -20.1675 
  53   1.0000      -0.693535       -18.8721 
  54   1.0000      -0.693301       -18.8657 
  55   1.0000      -0.669381       -18.2148 
  56   1.0000      -0.669080       -18.2066 
  57   1.0000      -0.623381       -16.9631 
  58   1.0000      -0.622607       -16.9420 
  59   1.0000      -0.601482       -16.3672 
  60   1.0000      -0.601358       -16.3638 
  61   1.0000      -0.589673       -16.0458 
  62   1.0000      -0.589104       -16.0303 
  63   1.0000      -0.561506       -15.2794 
  64   1.0000      -0.561014       -15.2660 
  65   1.0000      -0.515430       -14.0256 
  66   1.0000      -0.501624       -13.6499 
  67   1.0000      -0.501431       -13.6446 
  68   1.0000      -0.487695       -13.2709 
  69   1.0000      -0.487154       -13.2561 
  70   1.0000      -0.473645       -12.8885 
  71   1.0000      -0.471994       -12.8436 
  72   1.0000      -0.469076       -12.7642 
  73   1.0000      -0.466408       -12.6916 
  74   1.0000      -0.462787       -12.5931 
  75   1.0000      -0.417557       -11.3623 
  76   1.0000      -0.412243       -11.2177 
  77   1.0000      -0.409422       -11.1409 
  78   1.0000      -0.406304       -11.0561 
  79   1.0000      -0.406071       -11.0498 
  80   1.0000      -0.400506       -10.8983 
  81   1.0000      -0.399167       -10.8619 
  82   1.0000      -0.395192       -10.7537 
  83   1.0000      -0.393475       -10.7070 
  84   1.0000      -0.392830       -10.6895 
  85   1.0000      -0.392209       -10.6725 
  86   1.0000      -0.386305       -10.5119 
  87   1.0000      -0.350562        -9.5393 
  88   1.0000      -0.349867        -9.5204 
  89   1.0000      -0.302334        -8.2269 
  90   1.0000      -0.298859        -8.1324 
  91   1.0000      -0.296954        -8.0805 
  92   1.0000      -0.277420        -7.5490 
  93   1.0000      -0.273693        -7.4476 
  94   1.0000      -0.242109        -6.5881 
  95   1.0000      -0.240262        -6.5379 
  96   1.0000      -0.235214        -6.4005 
  97   1.0000      -0.233571        -6.3558 
  98   1.0000      -0.224685        -6.1140 
  99   1.0000      -0.223526        -6.0825 
 100   0.0000      -0.088013        -2.3950 
 101   0.0000      -0.043310        -1.1785 
 102   0.0000      -0.021337        -0.5806 
 103   0.0000      -0.016636        -0.4527 
 104   0.0000      -0.008395        -0.2284 
 105   0.0000      -0.000550        -0.0150 
 106   0.0000       0.003157         0.0859 
 107   0.0000       0.008634         0.2350 
 108   0.0000       0.027284         0.7424 
 109   0.0000       0.049593         1.3495 
 110   0.0000       0.050218         1.3665 

                 SPIN DOWN ORBITALS
  NO   OCC          E(Eh)            E(eV) 
   0   1.0000    -216.017187     -5878.1265 
   1   1.0000     -88.981772     -2421.3171 
   2   1.0000     -88.981764     -2421.3169 
   3   1.0000     -24.812251      -675.1757 
   4   1.0000     -21.073943      -573.4511 
   5   1.0000     -21.073724      -573.4452 
   6   1.0000     -21.070075      -573.3459 
   7   1.0000     -14.431922      -392.7126 
   8   1.0000     -14.431914      -392.7123 
   9   1.0000     -14.378213      -391.2511 
  10   1.0000     -14.378210      -391.2510 
  11   1.0000     -14.373133      -391.1128 
  12   1.0000     -14.373131      -391.1128 
  13   1.0000     -10.286065      -279.8981 
  14   1.0000     -10.286046      -279.8976 
  15   1.0000     -10.285070      -279.8710 
  16   1.0000     -10.285050      -279.8704 
  17   1.0000     -10.284258      -279.8489 
  18   1.0000     -10.284243      -279.8485 
  19   1.0000     -10.222092      -278.1573 
  20   1.0000     -10.222089      -278.1572 
  21   1.0000     -10.220334      -278.1094 
  22   1.0000     -10.220330      -278.1093 
  23   1.0000     -10.212714      -277.9021 
  24   1.0000     -10.212712      -277.9020 
  25   1.0000     -10.211709      -277.8747 
  26   1.0000     -10.211706      -277.8746 
  27   1.0000      -7.960353      -216.6122 
  28   1.0000      -7.960345      -216.6120 
  29   1.0000      -5.897562      -160.4808 
  30   1.0000      -5.897555      -160.4806 
  31   1.0000      -5.890818      -160.2973 
  32   1.0000      -5.890810      -160.2971 
  33   1.0000      -5.890654      -160.2928 
  34   1.0000      -5.890646      -160.2926 
  35   1.0000      -2.892060       -78.6970 
  36   1.0000      -1.824013       -49.6339 
  37   1.0000      -1.819330       -49.5065 
  38   1.0000      -1.816263       -49.4230 
  39   1.0000      -1.051702       -28.6183 
  40   1.0000      -1.050226       -28.5781 
  41   1.0000      -1.001798       -27.2603 
  42   1.0000      -1.001653       -27.2564 
  43   1.0000      -0.942516       -25.6472 
  44   1.0000      -0.941276       -25.6134 
  45   1.0000      -0.895304       -24.3625 
  46   1.0000      -0.895172       -24.3589 
  47   1.0000      -0.801460       -21.8088 
  48   1.0000      -0.801344       -21.8057 
  49   1.0000      -0.791151       -21.5283 
  50   1.0000      -0.791016       -21.5246 
  51   1.0000      -0.740822       -20.1588 
  52   1.0000      -0.740327       -20.1453 
  53   1.0000      -0.693355       -18.8672 
  54   1.0000      -0.693223       -18.8635 
  55   1.0000      -0.669161       -18.2088 
  56   1.0000      -0.668983       -18.2039 
  57   1.0000      -0.622663       -16.9435 
  58   1.0000      -0.622355       -16.9351 
  59   1.0000      -0.601361       -16.3639 
  60   1.0000      -0.601321       -16.3628 
  61   1.0000      -0.589386       -16.0380 
  62   1.0000      -0.589020       -16.0281 
  63   1.0000      -0.561213       -15.2714 
  64   1.0000      -0.560970       -15.2648 
  65   1.0000      -0.513547       -13.9743 
  66   1.0000      -0.501384       -13.6433 
  67   1.0000      -0.501313       -13.6414 
  68   1.0000      -0.487664       -13.2700 
  69   1.0000      -0.486799       -13.2465 
  70   1.0000      -0.473425       -12.8825 
  71   1.0000      -0.471772       -12.8376 
  72   1.0000      -0.468847       -12.7580 
  73   1.0000      -0.464861       -12.6495 
  74   1.0000      -0.462591       -12.5878 
  75   1.0000      -0.415583       -11.3086 
  76   1.0000      -0.409647       -11.1471 
  77   1.0000      -0.408845       -11.1252 
  78   1.0000      -0.406159       -11.0522 
  79   1.0000      -0.405285       -11.0284 
  80   1.0000      -0.398913       -10.8550 
  81   1.0000      -0.393733       -10.7140 
  82   1.0000      -0.393024       -10.6947 
  83   1.0000      -0.392260       -10.6739 
  84   1.0000      -0.391536       -10.6542 
  85   1.0000      -0.389527       -10.5996 
  86   1.0000      -0.385045       -10.4776 
  87   1.0000      -0.350469        -9.5368 
  88   1.0000      -0.349928        -9.5220 
  89   1.0000      -0.279232        -7.5983 
  90   1.0000      -0.273742        -7.4489 
  91   1.0000      -0.244779        -6.6608 
  92   1.0000      -0.241757        -6.5785 
  93   1.0000      -0.240045        -6.5320 
  94   1.0000      -0.235931        -6.4200 
  95   1.0000      -0.233580        -6.3560 
  96   1.0000      -0.233100        -6.3430 
  97   1.0000      -0.231147        -6.2898 
  98   0.0000      -0.054001        -1.4694 
  99   0.0000      -0.043964        -1.1963 
 100   0.0000      -0.036539        -0.9943 
 101   0.0000      -0.029774        -0.8102 
 102   0.0000      -0.021542        -0.5862 
 103   0.0000      -0.010985        -0.2989 
 104   0.0000      -0.010512        -0.2860 
 105   0.0000      -0.002335        -0.0635 
 106   0.0000      -0.001447        -0.0394 
 107   0.0000       0.018023         0.4904 
 108   0.0000       0.029294         0.7971 
*Only the first 10 virtual orbitals were printed.

                    ********************************
                    * MULLIKEN POPULATION ANALYSIS *
                    ********************************

--------------------------------------------
MULLIKEN ATOMIC CHARGES AND SPIN POPULATIONS
--------------------------------------------
   0 Cr:    0.480068    2.063461
   1 S :   -0.286009    0.059490
   2 N :   -0.219294   -0.081853
   3 N :   -0.364476   -0.031477
   4 N :   -0.374575    0.000052
   5 C :   -0.020024    0.035003
   6 C :    0.184766   -0.007744
   7 C :   -0.262753   -0.001645
   8 C :   -0.112230    0.001142
   9 C :   -0.106602   -0.002451
  10 C :   -0.204265    0.001351
  11 C :    0.236520    0.000296
  12 H :    0.121729   -0.000191
  13 H :    0.121283   -0.000084
  14 H :    0.131632    0.000160
  15 H :    0.109106   -0.000116
  16 H :    0.217348   -0.000962
  17 H :    0.230269    0.000323
  18 H :    0.180605   -0.000097
  19 H :    0.176934   -0.002932
  20 N :   -0.219359   -0.081848
  21 N :   -0.364504   -0.031469
  22 C :   -0.019974    0.034992
  23 C :    0.184718   -0.007810
  24 H :    0.217338   -0.000961
  25 H :    0.230265    0.000322
  26 S :   -0.285980    0.059506
  27 C :   -0.262809   -0.001580
  28 C :    0.236899    0.000328
  29 C :   -0.112148    0.001109
  30 H :    0.121697   -0.000167
  31 N :   -0.374640    0.000049
  32 C :   -0.204574    0.001324
[...]
 66:    965.56   0.000029    0.15  0.000009  (-0.001506  0.001968  0.001777)
 67:   1070.58   0.000145    0.73  0.000042  (-0.002608 -0.004483 -0.003912)
 68:   1070.59   0.001550    7.83  0.000452  (-0.008556 -0.014726 -0.012716)
 69:   1090.61   0.000011    0.06  0.000003  (-0.001428 -0.000663  0.000864)
 70:   1090.98   0.004088   20.66  0.001169  (-0.027415 -0.011587  0.016836)
 71:   1098.68   0.000006    0.03  0.000002  (-0.000960 -0.000416 -0.000786)
 72:   1101.07   0.074516  376.57  0.021119  (-0.111776 -0.047113 -0.080034)
 73:   1145.46   0.000000    0.00  0.000000  (-0.000086  0.000053 -0.000124)
 74:   1146.26   0.000580    2.93  0.000158  (-0.004005 -0.011640  0.002526)
 75:   1181.78   0.000513    2.59  0.000136  (-0.009517 -0.003511  0.005711)
 76:   1181.80   0.000158    0.80  0.000042  ( 0.005260  0.001933 -0.003199)
 77:   1186.77   0.000002    0.01  0.000000  ( 0.000302  0.000323 -0.000534)
 78:   1187.07   0.000252    1.27  0.000066  ( 0.003305  0.003916 -0.006326)
 79:   1245.62   0.005268   26.62  0.001320  ( 0.022236  0.025123  0.013939)
 80:   1246.83   0.000000    0.00  0.000000  ( 0.000032  0.000019  0.000012)
 81:   1331.58   0.000788    3.98  0.000185  ( 0.001127 -0.006236 -0.012020)
 82:   1332.02   0.017247   87.16  0.004041  ( 0.005220 -0.028849 -0.056401)
 83:   1352.87   0.000069    0.35  0.000016  (-0.000582  0.001981  0.003405)
 84:   1352.93   0.000778    3.93  0.000179  (-0.001890  0.006583  0.011509)
 85:   1392.36   0.002984   15.08  0.000669  (-0.022138 -0.012223  0.005423)
 86:   1392.42   0.000206    1.04  0.000046  ( 0.005793  0.003252 -0.001441)
 87:   1512.81   0.000749    3.79  0.000155  (-0.009891 -0.001014  0.007463)
 88:   1512.90   0.003176   16.05  0.000655  (-0.020296 -0.002162  0.015441)
 89:   1552.62   0.000100    0.51  0.000020  ( 0.000265  0.002690  0.003578)
 90:   1552.81   0.034102  172.34  0.006853  ( 0.004055  0.048143  0.067226)
 91:   1617.53   0.019119   96.62  0.003688  (-0.014825  0.056362 -0.017087)
 92:   1618.26   0.000268    1.35  0.000052  (-0.001815  0.006669 -0.001976)
 93:   1657.79   0.002192   11.08  0.000413  ( 0.004715 -0.018712 -0.006345)
 94:   1658.10   0.000276    1.40  0.000052  (-0.001643  0.006651  0.002245)
 95:   1668.08   0.000165    0.83  0.000031  ( 0.002996  0.002256  0.004088)
 96:   1668.18   0.000653    3.30  0.000122  ( 0.006026  0.004216  0.008255)
 97:   1685.33   0.000338    1.71  0.000063  (-0.003309  0.000544  0.007170)
 98:   1685.66   0.015518   78.42  0.002873  (-0.022433  0.003216  0.048571)
 99:   2115.32   0.577827  2920.10  0.085244  (-0.084636 -0.046696  0.275500)
100:   2129.94   0.000064    0.32  0.000009  (-0.001425 -0.000686  0.002615)
101:   3182.60   0.001183    5.98  0.000116  ( 0.006209  0.000779 -0.008764)
102:   3182.64   0.000887    4.48  0.000087  ( 0.005363  0.000636 -0.007603)
103:   3188.68   0.000366    1.85  0.000036  (-0.004805  0.001677  0.003153)
104:   3188.77   0.000360    1.82  0.000035  ( 0.004732 -0.001757 -0.003122)
105:   3203.98   0.002440   12.33  0.000238  (-0.010717 -0.010996  0.001356)
106:   3203.99   0.000014    0.07  0.000001  ( 0.000809  0.000863 -0.000091)
107:   3221.53   0.002212   11.18  0.000214  ( 0.004740  0.008714  0.010763)
108:   3221.56   0.000546    2.76  0.000053  (-0.002336 -0.004309 -0.005372)
109:   3458.76   0.007877   39.81  0.000711  (-0.021468  0.014855  0.005399)
110:   3459.12   0.000259    1.31  0.000023  ( 0.003902 -0.002672 -0.000996)
111:   3502.37   0.010508   53.10  0.000936  ( 0.016201  0.005591  0.025348)
112:   3503.54   0.074876  378.40  0.006669  (-0.043157 -0.014753 -0.067743)
113:   3557.50   0.001243    6.28  0.000109  (-0.006499 -0.004645  0.006724)
114:   3557.73   0.009407   47.54  0.000825  (-0.017717 -0.012926  0.018552)
115:   3642.69   0.012069   60.99  0.001034  ( 0.029437  0.011312  0.006277)
116:   3642.74   0.008634   43.64  0.000740  ( 0.024868  0.009666  0.005275)

* The epsilon (eps) is given for a Dirac delta lineshape.
** The dipole moment derivative (T) already includes vibrational overlap.

The first frequency considered to be a vibration is 6
The total number of vibrations considered is 111


--------------------------
THERMOCHEMISTRY AT 298.15K
--------------------------

Temperature         ...   298.15 K
Pressure            ...     1.00 atm
Total Mass          ...   384.44 AMU
Quasi RRHO          ...     True
Cut-Off Frequency   ...     1.00 cm^-1

Throughout the following assumptions are being made:
  (1) The electronic state is orbitally nondegenerate
      but the spin degeneracy is treated
  (2) There are no thermally accessible electronically excited states
  (3) Hindered rotations indicated by low frequency modes are not
      treated as such but are treated as vibrations and this may
      cause some error
  (4) All equations used are the standard statistical mechanics
      equations for an ideal gas
  (5) All vibrations are strictly harmonic

freq.      13.48  E(vib)   ...       0.57 
freq.      19.10  E(vib)   ...       0.57 
freq.      19.36  E(vib)   ...       0.57 
freq.      25.26  E(vib)   ...       0.56 
freq.      30.29  E(vib)   ...       0.55 
freq.      31.11  E(vib)   ...       0.55 
freq.      50.37  E(vib)   ...       0.52 
freq.      66.86  E(vib)   ...       0.50 
freq.      76.87  E(vib)   ...       0.49 
freq.      98.84  E(vib)   ...       0.46 
freq.     111.30  E(vib)   ...       0.45 
freq.     117.63  E(vib)   ...       0.44 
freq.     154.16  E(vib)   ...       0.40 
freq.     174.14  E(vib)   ...       0.38 
freq.     183.21  E(vib)   ...       0.37 
freq.     192.67  E(vib)   ...       0.36 
freq.     234.11  E(vib)   ...       0.32 
freq.     244.15  E(vib)   ...       0.31 
freq.     252.83  E(vib)   ...       0.30 
freq.     270.35  E(vib)   ...       0.29 
freq.     300.70  E(vib)   ...       0.26 
freq.     301.64  E(vib)   ...       0.26 
freq.     367.48  E(vib)   ...       0.21 
freq.     382.69  E(vib)   ...       0.20 
freq.     400.43  E(vib)   ...       0.19 
freq.     404.36  E(vib)   ...       0.19 
freq.     412.69  E(vib)   ...       0.19 
freq.     440.71  E(vib)   ...       0.17 
freq.     446.47  E(vib)   ...       0.17 
freq.     471.69  E(vib)   ...       0.15 
freq.     476.34  E(vib)   ...       0.15 
freq.     508.83  E(vib)   ...       0.14 
freq.     511.24  E(vib)   ...       0.14 
freq.     522.78  E(vib)   ...       0.13 
freq.     528.97  E(vib)   ...       0.13 
freq.     538.22  E(vib)   ...       0.12 
freq.     540.91  E(vib)   ...       0.12 
freq.     569.44  E(vib)   ...       0.11 
freq.     572.68  E(vib)   ...       0.11 
freq.     593.38  E(vib)   ...       0.10 
freq.     594.76  E(vib)   ...       0.10 
freq.     651.00  E(vib)   ...       0.08 
freq.     673.30  E(vib)   ...       0.08 
freq.     737.52  E(vib)   ...       0.06 
freq.     738.07  E(vib)   ...       0.06 
freq.     752.64  E(vib)   ...       0.06 
freq.     753.46  E(vib)   ...       0.06 
freq.     777.58  E(vib)   ...       0.05 
freq.     778.03  E(vib)   ...       0.05 
freq.     781.94  E(vib)   ...       0.05 
freq.     783.87  E(vib)   ...       0.05 
freq.     867.55  E(vib)   ...       0.04 
freq.     867.95  E(vib)   ...       0.04 
freq.     878.57  E(vib)   ...       0.04 
freq.     878.66  E(vib)   ...       0.04 
freq.     919.03  E(vib)   ...       0.03 
freq.     922.62  E(vib)   ...       0.03 
freq.     942.48  E(vib)   ...       0.03 
freq.     942.76  E(vib)   ...       0.03 
freq.     965.49  E(vib)   ...       0.03 
freq.     965.56  E(vib)   ...       0.03 
freq.    1070.58  E(vib)   ...       0.02 
freq.    1070.59  E(vib)   ...       0.02 
freq.    1090.61  E(vib)   ...       0.02 
freq.    1090.98  E(vib)   ...       0.02 
freq.    1098.68  E(vib)   ...       0.02 
freq.    1101.07  E(vib)   ...       0.02 
freq.    1145.46  E(vib)   ...       0.01 
freq.    1146.26  E(vib)   ...       0.01 
freq.    1181.78  E(vib)   ...       0.01 
freq.    1181.80  E(vib)   ...       0.01 
freq.    1186.77  E(vib)   ...       0.01 
freq.    1187.07  E(vib)   ...       0.01 
freq.    1245.62  E(vib)   ...       0.01 
freq.    1246.83  E(vib)   ...       0.01 
freq.    1331.58  E(vib)   ...       0.01 
freq.    1332.02  E(vib)   ...       0.01 
freq.    1352.87  E(vib)   ...       0.01 
freq.    1352.93  E(vib)   ...       0.01 
freq.    1392.36  E(vib)   ...       0.00 
freq.    1392.42  E(vib)   ...       0.00 
freq.    1512.81  E(vib)   ...       0.00 
freq.    1512.90  E(vib)   ...       0.00 
freq.    1552.62  E(vib)   ...       0.00 
freq.    1552.81  E(vib)   ...       0.00 
freq.    1617.53  E(vib)   ...       0.00 
freq.    1618.26  E(vib)   ...       0.00 
freq.    1657.79  E(vib)   ...       0.00 
freq.    1658.10  E(vib)   ...       0.00 
freq.    1668.08  E(vib)   ...       0.00 
freq.    1668.18  E(vib)   ...       0.00 
freq.    1685.33  E(vib)   ...       0.00 
freq.    1685.66  E(vib)   ...       0.00 
freq.    2115.32  E(vib)   ...       0.00 
freq.    2129.94  E(vib)   ...       0.00 
freq.    3182.60  E(vib)   ...       0.00 
freq.    3182.64  E(vib)   ...       0.00 
freq.    3188.68  E(vib)   ...       0.00 
freq.    3188.77  E(vib)   ...       0.00 
freq.    3203.98  E(vib)   ...       0.00 
freq.    3203.99  E(vib)   ...       0.00 
freq.    3221.53  E(vib)   ...       0.00 
freq.    3221.56  E(vib)   ...       0.00 
freq.    3458.76  E(vib)   ...       0.00 
freq.    3459.12  E(vib)   ...       0.00 
freq.    3502.37  E(vib)   ...       0.00 
freq.    3503.54  E(vib)   ...       0.00 
freq.    3557.50  E(vib)   ...       0.00 
freq.    3557.73  E(vib)   ...       0.00 
freq.    3642.69  E(vib)   ...       0.00 
freq.    3642.74  E(vib)   ...       0.00 

------------
INNER ENERGY
------------

The inner energy is: U= E(el) + E(ZPE) + E(vib) + E(rot) + E(trans)
    E(el)   - is the total energy from the electronic structure calculation
              = E(kin-el) + E(nuc-el) + E(el-el) + E(nuc-nuc)
    E(ZPE)  - the the zero temperature vibrational energy from the frequency calculation
    E(vib)  - the the finite temperature correction to E(ZPE) due to population
              of excited vibrational states
    E(rot)  - is the rotational thermal energy
    E(trans)- is the translational thermal energy

Summary of contributions to the inner energy U:
Electronic energy                ...  -2711.46029373 Eh
Zero point energy                ...      0.29748864 Eh     186.68 kcal/mol
Thermal vibrational correction   ...      0.02150968 Eh      13.50 kcal/mol
Thermal rotational correction    ...      0.00141627 Eh       0.89 kcal/mol
Thermal translational correction ...      0.00141627 Eh       0.89 kcal/mol
-----------------------------------------------------------------------
Total thermal energy                  -2711.13846286 Eh


Summary of corrections to the electronic energy:
(perhaps to be used in another calculation)
Total thermal correction                  0.02434223 Eh      15.27 kcal/mol
Non-thermal (ZPE) correction              0.29748864 Eh     186.68 kcal/mol
-----------------------------------------------------------------------
Total correction                          0.32183086 Eh     201.95 kcal/mol


--------
ENTHALPY
--------

The enthalpy is H = U + kB*T
                kB is Boltzmann's constant
Total thermal energy              ...  -2711.13846286 Eh 
Thermal Enthalpy correction       ...      0.00094421 Eh       0.59 kcal/mol
-----------------------------------------------------------------------
Total Enthalpy                    ...  -2711.13751865 Eh


Note: Only C1 symmetry has been detected, increase convergence thresholds 
      if your molecule has a higher symmetry. Symmetry factor of 1.0 is   
      used for the rotational entropy correction. 
 

Note: Rotational entropy computed according to Herzberg 
Infrared and Raman Spectra, Chapter V,1, Van Nostrand Reinhold, 1945 
Point Group:  C1, Symmetry Number:   1  
Rotational constants in cm-1:     0.007576     0.005077     0.003190 

Vibrational entropy computed according to the QRRHO of S. Grimme
Chem.Eur.J. 2012 18 9955 using a reference frequency of 100.0 cm-1


-------
ENTROPY
-------

The entropy contributions are T*S = T*(S(el)+S(vib)+S(rot)+S(trans))
     S(el)   - electronic entropy
     S(vib)  - vibrational entropy
     S(rot)  - rotational entropy
     S(trans)- translational entropy
The entropies will be listed as multiplied by the temperature to get
units of energy

Electronic entropy                ...      0.00103729 Eh      0.65 kcal/mol
Vibrational entropy               ...      0.03965635 Eh     24.88 kcal/mol
Rotational entropy                ...      0.01702342 Eh     10.68 kcal/mol
Translational entropy             ...      0.02077843 Eh     13.04 kcal/mol
-----------------------------------------------------------------------
Final entropy term                ...      0.07849549 Eh     49.26 kcal/mol

In case the symmetry of your molecule has not been determined correctly
or in case you have a reason to use a different symmetry number we print 
out the resulting rotational entropy values for sn=1,12:

 non-linear molecules -----------------------------------
|  sn= 1 | S(rot)=       0.01702342 Eh     10.68 kcal/mol|
|  sn= 2 | S(rot)=       0.01636896 Eh     10.27 kcal/mol|
|  sn= 3 | S(rot)=       0.01598613 Eh     10.03 kcal/mol|
|  sn= 4 | S(rot)=       0.01571451 Eh      9.86 kcal/mol|
|  sn= 5 | S(rot)=       0.01550382 Eh      9.73 kcal/mol|
|  sn= 6 | S(rot)=       0.01533167 Eh      9.62 kcal/mol|
|  sn= 7 | S(rot)=       0.01518613 Eh      9.53 kcal/mol|
|  sn= 8 | S(rot)=       0.01506005 Eh      9.45 kcal/mol|
|  sn= 9 | S(rot)=       0.01494884 Eh      9.38 kcal/mol|
|  sn=10 | S(rot)=       0.01484936 Eh      9.32 kcal/mol|
|  sn=11 | S(rot)=       0.01475937 Eh      9.26 kcal/mol|
|  sn=12 | S(rot)=       0.01467722 Eh      9.21 kcal/mol|
 linear molecules ---------------------------------------
|  Dinfh | S(rot)=       0.01075260 Eh      6.75 kcal/mol|
|  Cinfv | S(rot)=       0.01140706 Eh      7.16 kcal/mol|
 --------------------------------------------------------


-------------------
GIBBS FREE ENERGY
-------------------

The Gibbs free energy is G = H - T*S

Total enthalpy                    ...  -2711.13751865 Eh 
Total entropy correction          ...     -0.07849549 Eh    -49.26 kcal/mol
-----------------------------------------------------------------------
Final Gibbs free energy         ...  -2711.21601414 Eh

For completeness - the Gibbs free energy minus the electronic energy
G-E(el)                           ...      0.24427958 Eh    153.29 kcal/mol


Maximum memory used throughout the entire PROP-calculation: 917.1 MB

--------------------------------
SUGGESTED CITATIONS FOR THIS RUN
--------------------------------

Below you find a list of papers that are relevant to this ORCA run
We neither can nor want to force you to cite these papers, but we appreciate if you do
You receive ORCA, which is the product of decades of hard work by many enthusiastic individuals, for free
The only thing we kindly ask in return is that you cite our papers,
We deeply appreciate it, if you show your appreciation for ORCA by not just citing the generic ORCA reference.

Please note that relegating all ORCA citations to the supporting information does *not* help us.
SI sections are not indexed - citations you put there will not count into any citation statistics
But we need these citations in order to attract the funding resources that allow us to do what we are doing

Therefore, if you are a happy ORCA user, please consider citing a few of the papers listed below in the main body of your paper

In addition to the list printed below, the program has created the file SOFXAM-S5.bibtex that contains the list in bibtex format
You can import this file easily into all common literature databanks and citation aid programs


List of essential papers. We consider these as the minimum necessary citations

  1. Neese,F.
     Software update: the ORCA program system, version 5.0
     WIRES Comput. Molec. Sci., 2022 12(1)e1606
     doi.org/10.1002/wcms.1606

List of papers to cite with high priority. The work reported in these papers was absolutely
necessary for this run to complete.
Our perspective: the developers of density functionals and basis sets usually get cited in chemistry papers
Good! But without the algorithms to do something with them, the functionals or basis sets would not do anything.
Hence, in our opinion, the algorithm design and method developments papers are equally worthy of getting cited

  1. Neese,F.
     An improvement of the resolution of the identity approximation for the formation of the Coulomb matrix
     J. Comp. Chem., 2003 24(14)1740-1747
     doi.org/10.1002/jcc.10318
  2. Neese,F.; Wennmohs,F.; Hansen,A.; Becker,U.
     Efficient, approximate and parallel Hartree-Fock and hybrid DFT calculations. A 'chain-of-spheres' algorithm for the Hartree-Fock exchange
     Chem. Phys., 2009 356(1-3)98-109
     doi.org/10.1016/j.chemphys.2008.10.036
  3. Bykov,D.; Petrenko,T.; Izsak,R.; Kossmann,S.; Becker,U.; Valeev,E.; Neese,F.
     Efficient implementation of the analytic second derivatives of Hartree-Fock and hybrid DFT energies: a detailed analysis of different approximations
     Molec. Phys., 2015 113 1961-1977
     doi.org/10.1080/00268976.2015.1025114
  4. Helmich-Paris,B.; de Souza,B.; Neese,F.; Izsák,R.
     An improved chain of spheres for exchange algorithm
     J. Chem. Phys., 2021 155 104109
     doi.org/doi: 10.1063/5.0058766.
  5. Neese,F.
     The SHARK Integral Generation and Digestion System
     J. Comp. Chem., 2022  1-16
     doi.org/10.1002/jcc.26942

List of suggested additional citations. These are papers that are important in the 'surrounding' of 
of this run, or papers that preceded the highly important papers. If you like your results we are grateful for a citation.

  1. Izsak,R.; Neese,F.
     An overlap fitted chain of spheres exchange method
     J. Chem. Phys., 2011 135 144105
     doi.org/10.1063/1.3646921
  2. Izsak,R.; Hansen,A.; Neese,F.
     The resolution of identity and chain of spheres approximations for the LPNO-CCSD singles Fock term
     Molec. Phys., 2012 110 2413-2417
     doi.org/10.1080/00268976.2012.687466
  3. Neese,F.
     The ORCA program system
     WIRES Comput. Molec. Sci., 2012 2(1)73-78
     doi.org/10.1002/wcms.81
  4. Izsak,R.; Neese,F.; Klopper,W.
     Robust fitting techniques in the chain of spheres approximation to the Fock exchange: The role of the complementary space
     J. Chem. Phys., 2013 139 
     doi.org/10.1063/1.4819264
  5. Neese,F.
     Software update: the ORCA program system, version 4.0
     WIRES Comput. Molec. Sci., 2018 8(1)1-6
     doi.org/10.1002/wcms.1327
  6. Neese,F.; Wennmohs,F.; Becker,U.; Riplinger,C.
     The ORCA quantum chemistry program package
     J. Chem. Phys., 2020 152 Art. No. L224108
     doi.org/10.1063/5.0004608

List of optional additional citations

  1. Neese,F.
     Approximate second-order SCF convergence for spin unrestricted wavefunctions
     Chem. Phys. Lett., 2000 325(1-3)93-98
     doi.org/10.1016/s0009-2614(00)00662-x

Timings for individual modules:

Sum of individual times          ...    18153.960 sec (= 302.566 min)
Startup calculation              ...      528.222 sec (=   8.804 min)   2.9 %
SCF iterations                   ...     9875.730 sec (= 164.595 min)  54.4 %
Property integrals               ...     1873.839 sec (=  31.231 min)  10.3 %
SCF Response                     ...     3127.359 sec (=  52.123 min)  17.2 %
Property calculations            ...      661.643 sec (=  11.027 min)   3.6 %
SCF Gradient evaluation          ...     2086.147 sec (=  34.769 min)  11.5 %
Geometry relaxation              ...        1.020 sec (=   0.017 min)   0.0 %
                             ****ORCA TERMINATED NORMALLY****
TOTAL RUN TIME: 0 days 5 hours 4 minutes 1 seconds 336 msec
