
                                 *****************
                                 * O   R   C   A *
                                 *****************

                                            #,                                       
                                            ###                                      
                                            ####                                     
                                            #####                                    
                                            ######                                   
                                           ########,                                 
                                     ,,################,,,,,                         
                               ,,#################################,,                 
                          ,,##########################################,,             
                       ,#########################################, ''#####,          
                    ,#############################################,,   '####,        
                  ,##################################################,,,,####,       
                ,###########''''           ''''###############################       
              ,#####''   ,,,,##########,,,,          '''####'''          '####       
            ,##' ,,,,###########################,,,                        '##       
           ' ,,###''''                  '''############,,,                           
         ,,##''                                '''############,,,,        ,,,,,,###''
      ,#''                                            '''#######################'''  
     '                                                          ''''####''''         
             ,#######,   #######,   ,#######,      ##                                
            ,#'     '#,  ##    ##  ,#'     '#,    #''#        ,####,   ,####,        
            ##       ##  ##   ,#'  ##            #'  '#       #'       #'  '#        
            ##       ##  #######   ##           ,######,      #####,   #    #        
            '#,     ,#'  ##    ##  '#,     ,#' ,#      #,     #,   #   #,  ,#        
             '#######'   ##     ##  '#######'  #'      '#     '####' # '####'        



                #########################################################
                #                        -***-                          #
                #          Department of theory and spectroscopy        #
                #                                                       #
                #                      Frank Neese                      #
                #                                                       #
                #     Directorship, Architecture, Infrastructure        #
                #                    SHARK, DRIVERS                     #
                #        Core code/Algorithms in most modules           #
                #                                                       #
                #        Max Planck Institute fuer Kohlenforschung      #
                #                Kaiser Wilhelm Platz 1                 #
                #                 D-45470 Muelheim/Ruhr                 #
                #                      Germany                          #
                #                                                       #
                #                  All rights reserved                  #
                #                        -***-                          #
                #########################################################


                         Program Version 6.0.1  -  RELEASE   -


 With contributions from (in alphabetic order):
[Max-Planck-Institut fuer Kohlenforschung]                               
  Daniel Aravena         : Magnetic Suceptibility                        
  Michael Atanasov       : Ab Initio Ligand Field Theory (pilot matlab implementation)
  Alexander A. Auer      : GIAO ZORA, VPT2 properties, NMR spectrum      
  Ute Becker             : All parallelization in ORCA, NUMFREQ, NUMCALC 
  Giovanni Bistoni       : ED, misc. LED, open-shell LED, HFLD           
  Martin Brehm           : Molecular dynamics                            
  Dmytro Bykov           : pre 5.0 version of the SCF Hessian            
  Marcos Casanova-Páez   : Triplet and SCS-CIS(D). UHF-(DLPNO)-IP/EA/STEOM-CCSD. UHF-CVS-IP/STEOM-CCSD   
  Vijay G. Chilkuri      : MRCI spin determinant printing, contributions to CSF-ICE 
  Pauline Colinet        : FMM embedding                                 
  Dipayan Datta          : RHF DLPNO-CCSD density                        
  Achintya Kumar Dutta   : EOM-CC, STEOM-CC                              
  Nicolas Foglia         : Exact transition moments, OPA infrastructure, MCD improvements    
  Dmitry Ganyushin       : Spin-Orbit,Spin-Spin,Magnetic field MRCI      
  Miquel Garcia-Rates    : C-PCM and meta-GGA Hessian, CCSD/C-PCM, Gaussian charge scheme 
  Tiago L. C. Gouveia    : GS-ROHF, GS-ROCIS                             
  Yang Guo               : DLPNO-NEVPT2, F12-NEVPT2, CIM, IAO-localization        
  Andreas Hansen         : Spin unrestricted coupled pair/coupled cluster methods 
  Ingolf Harden          : AUTO-CI MPn and infrastructure                
  Benjamin Helmich-Paris : MC-RPA, TRAH-(SCF,CASSCF), AVAS, COSX integrals, SCF dyn. polar. 
  Lee Huntington         : MR-EOM, pCC                                   
  Robert Izsak           : Overlap fitted RIJCOSX, COSX-SCS-MP3, EOM     
  Riya Kayal             : Wick's Theorem for AUTO-CI, AUTO-CI UHF-CCSDT 
  Emily Kempfer          : AUTO-CI, RHF CISDT and CCSDT                  
  Christian Kollmar      : KDIIS, OOCD, Brueckner-CCSD(T), CCSD density, CASPT2, CASPT2-K, improved NEVPT2 
  Axel Koslowski         : Symmetry handling                             
  Simone Kossmann        : meta-GGA functionals, TD-DFT gradient, OOMP2, (MP2 Hessian; deprecated post 5.0) 
  Lucas Lang             : DCDCAS                                        
  Marvin Lechner         : AUTO-CI (C++ implementation), FIC-MRCC        
  Spencer Leger          : CASSCF response                               
  Dagmar Lenk            : GEPOL surface, SMD, ORCA-2-JSON               
  Dimitrios Liakos       : Extrapolation schemes; Compound Job, initial MDCI parallelization 
  Dimitrios Manganas     : Further ROCIS development; embedding schemes. LFT, Crystal Embedding 
  Dimitrios Pantazis     : SARC Basis sets                               
  Anastasios Papadopoulos: AUTO-CI, single reference methods and gradients 
  Taras Petrenko         : pre 6.0 DFT Hessian and TD-DFT gradient, (ASA, deprecated), ECA, 1-Electron XAS/XES, NRVS 
  Peter Pinski           : DLPNO-MP2, DLPNO-MP2 Gradient                 
  Christoph Reimann      : Effective Core Potentials                     
  Marius Retegan         : Local ZFS, SOC                                
  Christoph Riplinger    : Optimizer, TS searches, QM/MM, DLPNO-CCSD(T), (RO)-DLPNO pert. Triples 
  Michael Roemelt        : Original ROCIS implementation                 
  Masaaki Saitow         : Open-shell DLPNO-CCSD energy and density      
  Barbara Sandhoefer     : DKH picture change effects                    
  Kantharuban Sivalingam : CASSCF convergence/infrastructure, NEVPT2 and variants, FIC-MRCI 
  Bernardo de Souza      : ESD, SOC TD-DFT                               
  Georgi L. Stoychev     : AutoAux, RI-MP2 NMR, DLPNO-MP2 response, X2C  
  Van Anh Tran           : RI-MP2 g-tensors                              
  Willem Van den Heuvel  : Paramagnetic NMR                              
  Zikuan Wang            : NOTCH, Electric field optimization            
  Frank Wennmohs         : Technical directorship and infrastructure     
  Hang Xu                : AUTO-CI-Response properties                   
                                                                         
[FACCTs GmbH]                                                            
  Markus Bursch, Miquel Garcia-Rates, Christoph Riplinger, Bernardo de Souza, Georgi L. Stoychev 
                                                                 
  APM, Basis sets (HGBS, AHGBS, def-TZVP (Ac-Lr), def2-XVPD (La-Lu)), CI-OPT, improved COSX, DLPNO-Multilevel,           
  DOCKER, DRACO, updates on ESD, GOAT, IRC, LR-CPCM, MBIS, meta-GGA TD-DFT gradient, ML-optimized integration grids, 
  MM, NACMEs, nearIR, NEB, NEB-TS, NL-DFT gradient (VV10), 2- and 3-layer-ONIOM, interface openCOSMO-RS, QMMM,   
  Crystal-QMMM, SF, symmetry and pop. for TD-DFT, r2SCAN hybrids, SOLVATOR                                   
                                                                         
[Other institutions]                                                     
  V. Asgeirsson          : NEB                                           
  Christoph Bannwarth    : sTDA-DFT, sTD-DFT, PBEh-3c, B97-3c, D3        
  Sebastian Ehlert       : rSCAN, r2SCAN, r2SCAN-3c, D4, dhf basis sets  
  Marvin Friede          : D4 for Fr, Ra, Ac-Lr                          
  Lars Goerigk           : TD-DFT with DH, B97 family of functionals     
  Stefan Grimme          : VdW corrections, initial TS optimization, DFT functionals, gCP, sTDA/sTD-DF 
  Waldemar Hujo          : DFT-NL                                        
  H. Jonsson             : NEB                                           
  Holger Kruse           : gCP                                           
  Marcel Mueller         : wB97X-3c, vDZP basis set                      
  Hagen Neugebauer       : wr2SCAN                                       
  Tobias Risthaus        : range-separated hybrid DFT                    
  Lukas Wittmann         : regularized MP2, r2SCAN double-hybrids, wr2SCAN        
                                                                         
We gratefully acknowledge several colleagues who have allowed us to      
interface, adapt or use parts of their codes:                            
  Ed Valeev, F. Pavosevic, A. Kumar             : LibInt (2-el integral package), F12 methods 
  Garnet Chan, S. Sharma, J. Yang, R. Olivares  : DMRG                   
  Ulf Ekstrom                                   : XCFun DFT Library      
  Mihaly Kallay                                 : mrcc  (arbitrary order and MRCC methods)
  Frank Weinhold                                : gennbo (NPA and NBO analysis)           
  Simon Mueller                                 : openCOSMO-RS                            
  Christopher J. Cramer and Donald G. Truhlar   : smd solvation model                     
  S Lehtola, MJT Oliveira, MAL Marques          : LibXC Library                           
  Liviu Ungur et al                             : ANISO software                          


 Your calculation uses the libint2 library for the computation of 2-el integrals
 For citations please refer to: http://libint.valeyev.net

 Your ORCA version has been built with support for libXC version: 6.2.2
 For citations please refer to: https://libxc.gitlab.io

 This ORCA versions uses:
   CBLAS   interface :  Fast vector & matrix operations
   LAPACKE interface :  Fast linear algebra routines
   SCALAPACK package :  Parallel linear algebra routines
   Shared memory     :  Shared parallel matrices
   BLAS/LAPACK       :  OpenBLAS 0.3.27  USE64BITINT DYNAMIC_ARCH NO_AFFINITY Cooperlake SINGLE_THREADED
        Core in use  :  Cooperlake
   Copyright (c) 2011-2014, The OpenBLAS Project


NOTE: MaxCore=3600 MB was set to SCF,MP2,MDCI,CIPSI,MRCI and CIS
      => If you want to overwrite this, your respective input block should be placed after the MaxCore statement
Warning: RI is on but no J-basis has been assigned. Assigning Def2/J (nothing to worry about!)
================================================================================

cite the ECPs for I  [Def2-ECP] as follows:
Ce-Yb(ecp-28): M. Dolg, H. Stoll, H.Preuss, J. Chem. Phys., 1989, 90, 1730-1734.
Y-Cd(ecp-28), Hf-Hg(ecp-46): D. Andrae,U. Haeussermann, M. Dolg, H. Stoll, H. Preuss, Theor. Chim. Acta, 1990, 77, 123-141.
In-Sb(ecp-28), Tl-Bi(ecp-46): B. Metz, H. Stoll, M. Dolg, J. Chem. Phys., 2000, 113, 2563-2569.
Te-Xe(ecp-28), Po-Rn(ecp-46): K. A. Peterson, D. Figgen, E. Goll, H. Stoll, M. Dolg, J. Chem. Phys., 2003, 119, 11113-11123.
Rb(ecp-28), Cs(ecp-46): T. Leininger, A. Nicklass, W. Kuechle, H. Stoll, M. Dolg, A. Bergner, Chem. Phys. Lett., 1996, 255, 274-280.
Sr(ecp-28), Ba(ecp-46): M. Kaupp, P. V. Schleyer, H. Stoll and H. Preuss, J. Chem. Phys., 1991, 94, 1360-1366.
La(ecp-46): M. Dolg, H. Stoll, A. Savin, H. Preuss, Theor. Chim. Acta, 1989, 75, 173-194.
Lu(ecp-28): X. Cao, M. Dolg, J. Chem. Phys., 2001, 115, 7348-7355.

ECP parameters for I  [Def2-ECP] have been obtained from:
TURBOMOLE (7.0.2)

----- Orbital basis set information -----
Your calculation utilizes the basis: def2-TZVP
   F. Weigend and R. Ahlrichs, Phys. Chem. Chem. Phys. 7, 3297 (2005).

----- AuxJ basis set information -----
Your calculation utilizes the auxiliary basis: def2/J
   F. Weigend, Phys. Chem. Chem. Phys. 8, 1057 (2006).

================================================================================
                                        WARNINGS
                       Please study these warnings very carefully!
================================================================================


WARNING: your system is open-shell and RHF/RKS was chosen
  ===> : WILL SWITCH to UHF/UKS


WARNING: Geometry Optimization
  ===> : Switching off AutoStart
         For restart on a previous wavefunction, please use MOREAD

================================================================================
                                       INPUT FILE
================================================================================
NAME = VAZWAU-S5.inp
|  1> ! PBE0 def2-TZVP  SlowConv TightOpt Freq DEFGRID3
|  2> 
|  3> %maxcore 3600
|  4> 
|  5> %pal
|  6>     nprocs 16
|  7> end
|  8> 
|  9> *xyz 0 3
| 10> I 5.005623377976539 4.746140295377195 2.280917305139548
| 11> Cr 2.9045824586253013 4.370358294056835 3.9994481915238076
| 12> P 4.101189316752735 5.817000142419108 5.54926775284058
| 13> P 4.191447285060639 2.646214492954211 5.18710554872228
| 14> C 5.542404339024754 4.853252317494907 6.181187434053216
| 15> C 3.2628580109125696 6.285504701856579 7.125017767778338
| 16> C 4.827765996184223 7.4090827742584 4.952544539476368
| 17> C 4.023420175088466 7.139304373600144 8.127275104163877
| 18> C 6.1981220868246325 7.820796344370527 5.470955150293968
| 19> C 5.062294053158486 3.47050086333782 6.598360399601562
| 20> C 3.332221178488236 1.245653526296533 6.021323890061908
| 21> C 5.636517174021834 1.803870728685399 4.407228031582607
| 22> C 4.159342059832391 0.3651556837772756 6.9451734753970475
| 23> C 5.2882324552611015 0.8022122477624803 3.316619356892939
| 24> I 0.8038500225970358 3.994387889352923 5.718462886524175
| 25> P 1.7060764017263683 2.923574490342632 2.451033851297327
| 26> P 1.6185664419561192 6.094890472173547 2.8107584749314993
| 27> C 0.2643937348618942 3.887748890268553 1.8209321356034582
| 28> C 2.543030270824066 2.4536858256547194 0.8749956857839767
| 29> C 0.9795574993138928 1.3315768776437387 3.0481838933611543
| 30> C 0.744923083242371 5.2696599465791705 1.4018368683185936
| 31> C 2.478196968831628 7.493016170674743 1.9728385269470947
| 32> C 0.17676203732870419 6.940932174294274 3.5927449844057904
| 33> C 1.7791553891920115 1.6055023749090442 -0.12946278593020322
| 34> C -0.39440774600242273 0.9237759334494232 2.535953691440041
| 35> C 1.6495874436430045 8.374390806719953 1.0512048333136712
| 36> C 0.5421907533012217 7.962130254052028 4.668476560602462
| 37> H -0.4528231261522938 3.9641059118807735 2.6436663016107804
| 38> H -0.23518856131291366 3.373014822477911 0.9966106731113047
| 39> H 1.457911011277641 5.194378823611623 0.5761194012209117
| 40> H -0.09051371589379395 5.886406967743014 1.055291781073151
| 41> H 3.3126353319903337 7.0361916642377205 1.4314092107203082
| 42> H 2.9348665609176363 8.091851284214977 2.7635918908505372
| 43> H -0.4447776845969274 6.159548111080601 4.02432510237033
| 44> H -0.3914519702475828 7.421389587718087 2.789838826160899
| 45> H 0.9435152857351854 1.4233047628169615 4.135565497275206
| 46> H 1.7252431998170543 0.5621701280235321 2.816828260544286
| 47> H 3.4693908257169324 1.9563928785042783 1.1610659698148356
| 48> H 2.874539506915626 3.3934057809702742 0.42183809848861636
| 49> H 6.198364126373908 1.3161948906066339 5.210041509952094
| 50> H 6.266727908388277 2.592250966666366 3.9939275370988847
| 51> H 2.8800830463769045 0.6459851930741102 5.227583721818886
| 52> H 2.494624132805451 1.699623270678987 6.558956626942622
| 53> H 5.897116575147121 2.8539534648757052 6.945779499814689
| 54> H 4.347648368150355 3.5443077488061245 7.423195928298574
| 55> H 6.039927349498453 5.367562947370608 7.007089906148329
| 56> H 6.261178034961372 4.778039178275031 5.359821727704479
| 57> H 2.937774119161438 5.344179790202454 7.580388797133711
| 58> H 2.331537113706171 6.773491005610502 6.8408271904934015
| 59> H 4.079462769866705 8.177645097800244 5.178299047648181
| 60> H 4.869363853953912 7.314922111843968 3.8655176926029426
| 61> H 4.2638656178344565 8.124331296447656 7.724600218733167
| 62> H 3.413394301266378 7.294932357135961 9.021427729533357
| 63> H 4.955510996329379 6.671057819196753 8.451415089609451
| 64> H 6.963302469630727 7.104654590647291 5.167076655553826
| 65> H 6.478050415969672 8.79162984309179 5.0522850754382125
| 66> H 6.232207587838503 7.908929274978255 6.55761865647371
| 67> H 4.68467471976338 1.2199640313303197 2.510335830511266
| 68> H 6.191377315187884 0.3242342785528338 2.9325212778813916
| 69> H 4.625412808944501 0.0068176404590050595 3.682619224435272
| 70> H 4.605110597623504 0.9367222480112392 7.762623618624595
| 71> H 3.527467295291775 -0.4040014716098857 7.396218267283773
| 72> H 4.966649914013183 -0.14678843490627125 6.416971138962134
| 73> H -0.4347640203040037 0.8388256986980567 1.449377956887892
| 74> H -0.6739529730246642 -0.04768083045558513 2.9535997732542354
| 75> H -1.156567129078245 1.6405315675707577 2.8459320222635736
| 76> H 0.8500476781348915 2.0791914253799417 -0.45423388997556713
| 77> H 2.389131216416053 1.448592987834026 -1.0234168659451357
| 78> H 1.5321352330360545 0.6210550170010519 0.2712985089700102
| 79> H 0.8438896211443556 8.887059485188955 1.5812958798364938
| 80> H 2.2808944750050406 9.142536687326016 0.5979631814185521
| 81> H 1.2010675430422313 7.80295648657263 0.23496137000792316
| 82> H 1.1907056100340943 8.773537756916031 4.264162701175293
| 83> H -0.35651640772320375 8.433311661988798 5.0695687896425525
| 84> H 1.5796321058 7.857779760600001 5.3374621351
| 85> *
| 86> 
| 87>                          ****END OF INPUT****
================================================================================

                       *****************************
                       * Geometry Optimization Run *
                       *****************************

Geometry optimization settings:
Update method            Update   .... BFGS
Choice of coordinates    CoordSys .... (2022) Redundant Internals
Initial Hessian          InHess   .... Almloef's Model
Max. no of cycles        MaxIter  .... 225

Convergence Tolerances:
Energy Change            TolE     ....  1.0000e-06 Eh
Max. Gradient            TolMAXG  ....  1.0000e-04 Eh/bohr
RMS Gradient             TolRMSG  ....  3.0000e-05 Eh/bohr
Max. Displacement        TolMAXD  ....  1.0000e-03 bohr
RMS Displacement         TolRMSD  ....  6.0000e-04 bohr
Strict Convergence                .... False

------------------------------------------------------------------------------
                        ORCA OPTIMIZATION COORDINATE SETUP
------------------------------------------------------------------------------

The optimization will be done in redundant internal coordinates (2022)
Making redundant internal coordinates   ...  (2022 redundants) done
Evaluating the initial hessian          ...  (Almloef) done
Evaluating the coordinates              ...  done
Calculating the B-matrix                .... done
Calculating the G-matrix                .... done
Diagonalizing the G-matrix              .... done
Small eigenvalue found = 3.605e-03
Small eigenvalue found = 6.054e-03
Small eigenvalue found = 9.927e-03
Small eigenvalue found = 1.031e-02
Small eigenvalue found = 1.083e-02
Small eigenvalue found = 1.660e-02
Small eigenvalue found = 1.743e-02
Small eigenvalue found = 1.762e-02
Small eigenvalue found = 1.867e-02
Small eigenvalue found = 2.177e-02
Small eigenvalue found = 2.224e-02
Small eigenvalue found = 2.697e-02
Small eigenvalue found = 2.881e-02
The first mode is                       ....  209
The number of degrees of freedom        ....  219

    -----------------------------------------------------------------
                    Redundant Internal Coordinates


    -----------------------------------------------------------------
         Definition                    Initial Value    Approx d2E/dq
    -----------------------------------------------------------------
      1. B(Cr  1,I   0)                  2.7402         0.148981   
      2. B(P   2,Cr  1)                  2.4345         0.458134   
      3. B(P   3,Cr  1)                  2.4575         0.420975   
      4. B(C   4,P   2)                  1.8453         0.394264   
      5. B(C   5,P   2)                  1.8453         0.394244   
      6. B(C   6,P   2)                  1.8490         0.389012   
      7. B(C   7,C   5)                  1.5205         0.386829   
      8. B(C   8,C   6)                  1.5219         0.384879   
      9. B(C   9,C   4)                  1.5220         0.384690   
     10. B(C   9,P   3)                  1.8519         0.384885   
     11. B(C  10,P   3)                  1.8428         0.398001   
     12. B(C  11,P   3)                  1.8455         0.393971   
     13. B(C  12,C  10)                  1.5208         0.386383   
     14. B(C  13,C  11)                  1.5212         0.385849   
     15. B(I  14,Cr  1)                  2.7403         0.148930   
     16. B(P  15,Cr  1)                  2.4346         0.457925   
     17. B(P  16,Cr  1)                  2.4578         0.420469   
     18. B(C  17,P  15)                  1.8453         0.394312   
     19. B(C  18,P  15)                  1.8453         0.394283   
     20. B(C  19,P  15)                  1.8490         0.388952   
     21. B(C  20,C  17)                  1.5219         0.384836   
     22. B(C  20,P  16)                  1.8518         0.384940   
     23. B(C  21,P  16)                  1.8428         0.397974   
     24. B(C  22,P  16)                  1.8456         0.393928   
     25. B(C  23,C  18)                  1.5205         0.386872   
     26. B(C  24,C  19)                  1.5220         0.384727   
     27. B(C  25,C  21)                  1.5208         0.386421   
     28. B(C  26,C  22)                  1.5276         0.376874   
     29. B(H  27,C  17)                  1.0941         0.354677   
     30. B(H  28,C  17)                  1.0927         0.356518   
     31. B(H  29,C  20)                  1.0935         0.355448   
     32. B(H  30,C  20)                  1.0947         0.353902   
     33. B(H  31,C  21)                  1.0946         0.354082   
     34. B(H  32,C  21)                  1.0920         0.357477   
     35. B(H  33,C  22)                  1.0877         0.363129   
     36. B(H  34,C  22)                  1.0947         0.353938   
     37. B(H  35,C  19)                  1.0918         0.357676   
     38. B(H  36,C  19)                  1.0962         0.352047   
     39. B(H  37,C  18)                  1.0896         0.360598   
     40. B(H  38,C  18)                  1.0947         0.353962   
     41. B(H  39,C  11)                  1.0945         0.354149   
     42. B(H  40,C  11)                  1.0907         0.359236   
     43. B(H  41,C  10)                  1.0927         0.356509   
     44. B(H  42,C  10)                  1.0939         0.354924   
     45. B(H  43,C   9)                  1.0944         0.354298   
     46. B(H  44,C   9)                  1.0939         0.355036   
     47. B(H  45,C   4)                  1.0928         0.356446   
     48. B(H  46,C   4)                  1.0940         0.354789   
     49. B(H  47,C   5)                  1.0951         0.353481   
     50. B(H  48,C   5)                  1.0892         0.361223   
     51. B(H  49,C   6)                  1.0962         0.352017   
     52. B(H  50,C   6)                  1.0919         0.357608   
     53. B(H  51,C   7)                  1.0910         0.358805   
     54. B(H  52,C   7)                  1.0936         0.355429   
     55. B(H  53,C   7)                  1.0923         0.357073   
     56. B(H  54,C   8)                  1.0912         0.358525   
     57. B(H  55,C   8)                  1.0937         0.355249   
     58. B(H  56,C   8)                  1.0908         0.359090   
     59. B(H  57,C  13)                  1.0904         0.359620   
     60. B(H  58,C  13)                  1.0916         0.357945   
     61. B(H  59,C  13)                  1.0982         0.349475   
     62. B(H  60,C  12)                  1.0925         0.356768   
     63. B(H  61,C  12)                  1.0928         0.356356   
     64. B(H  62,C  12)                  1.0922         0.357244   
     65. B(H  63,C  24)                  1.0906         0.359257   
     66. B(H  64,C  24)                  1.0938         0.355166   
     67. B(H  65,C  24)                  1.0912         0.358519   
     68. B(H  66,C  23)                  1.0923         0.357083   
     69. B(H  67,C  23)                  1.0935         0.355438   
     70. B(H  68,C  23)                  1.0912         0.358487   
     71. B(H  69,C  25)                  1.0922         0.357157   
     72. B(H  70,C  25)                  1.0927         0.356527   
     73. B(H  71,C  25)                  1.0927         0.356565   
     74. B(H  72,C  26)                  1.1146         0.328936   
     75. B(H  73,C  26)                  1.0911         0.358610   
     76. B(H  74,C  26)                  1.2388         0.208432   
     77. A(I  14,Cr  1,P  15)           86.5632         0.439488   
     78. A(P   3,Cr  1,P  15)           98.5242         0.532418   
     79. A(I   0,Cr  1,P  15)           93.4442         0.439515   
     80. A(I   0,Cr  1,P  16)           90.0946         0.432810   
     81. A(P   2,Cr  1,P   3)           81.4805         0.532464   
     82. A(I   0,Cr  1,P   2)           86.6112         0.439551   
     83. A(P   3,Cr  1,I  14)           90.1151         0.432877   
     84. A(P  15,Cr  1,P  16)           81.4767         0.532298   
     85. A(I   0,Cr  1,P   3)           89.8738         0.432904   
     86. A(P   2,Cr  1,I  14)           93.3814         0.439524   
     87. A(P   2,Cr  1,P  16)           98.5186         0.532343   
     88. A(I  14,Cr  1,P  16)           89.9164         0.432784   
     89. A(Cr  1,P   2,C   4)          106.9505         0.475771   
     90. A(Cr  1,P   2,C   5)          118.1110         0.475766   
     91. A(C   4,P   2,C   6)          104.6736         0.418925   
     92. A(Cr  1,P   2,C   6)          119.9582         0.474598   
     93. A(C   4,P   2,C   5)          101.2441         0.419924   
     94. A(C   5,P   2,C   6)          103.6207         0.418921   
     95. A(C   9,P   3,C  11)           99.0315         0.418074   
     96. A(Cr  1,P   3,C   9)          107.5932         0.466374   
     97. A(C  10,P   3,C  11)          102.0930         0.420580   
     98. A(Cr  1,P   3,C  10)          120.5208         0.469247   
     99. A(Cr  1,P   3,C  11)          121.7372         0.468372   
    100. A(C   9,P   3,C  10)          102.2732         0.418833   
    101. A(C   9,C   4,H  45)          111.3487         0.325340   
    102. A(P   2,C   4,H  46)          106.9732         0.346578   
    103. A(P   2,C   4,H  45)          111.6288         0.346850   
    104. A(C   9,C   4,H  46)          110.5217         0.325090   
    105. A(P   2,C   4,C   9)          108.7823         0.392321   
    106. A(H  45,C   4,H  46)          107.4968         0.289698   
    107. A(P   2,C   5,C   7)          118.5668         0.392698   
    108. A(C   7,C   5,H  48)          110.3726         0.326350   
    109. A(P   2,C   5,H  48)          106.2247         0.347625   
    110. A(C   7,C   5,H  47)          110.9210         0.325189   
    111. A(P   2,C   5,H  47)          105.7663         0.346360   
    112. A(H  47,C   5,H  48)          103.8750         0.290135   
    113. A(P   2,C   6,H  50)          105.1894         0.346258   
    114. A(H  49,C   6,H  50)          106.9477         0.289490   
    115. A(P   2,C   6,H  49)          105.6045         0.345342   
    116. A(C   8,C   6,H  49)          110.7842         0.324698   
    117. A(C   8,C   6,H  50)          109.1563         0.325540   
    118. A(P   2,C   6,C   8)          118.4794         0.391435   
    119. A(C   5,C   7,H  53)          112.4409         0.325730   
    120. A(C   5,C   7,H  52)          109.8675         0.325483   
    121. A(C   5,C   7,H  51)          111.9587         0.325990   
    122. A(H  51,C   7,H  52)          107.2322         0.290080   
    123. A(H  51,C   7,H  53)          107.9693         0.290290   
    124. A(H  52,C   7,H  53)          107.1208         0.289860   
    125. A(H  54,C   8,H  55)          107.2466         0.290021   
    126. A(H  55,C   8,H  56)          107.5564         0.290093   
    127. A(C   6,C   8,H  56)          112.9142         0.325761   
    128. A(H  54,C   8,H  56)          107.9719         0.290511   
    129. A(C   6,C   8,H  54)          111.0392         0.325677   
    130. A(C   6,C   8,H  55)          109.8894         0.325186   
    131. A(P   3,C   9,C   4)          110.1110         0.390673   
    132. A(H  43,C   9,H  44)          107.2772         0.289455   
    133. A(C   4,C   9,H  44)          110.5773         0.325127   
    134. A(C   4,C   9,H  43)          110.9895         0.325016   
    135. A(P   3,C   9,H  43)          110.4791         0.345098   
    136. A(P   3,C   9,H  44)          107.3046         0.345219   
    137. A(C  12,C  10,H  41)          110.3996         0.325584   
    138. A(H  41,C  10,H  42)          105.5403         0.289723   
    139. A(P   3,C  10,H  42)          105.3130         0.347151   
    140. A(P   3,C  10,H  41)          106.3311         0.347412   
    141. A(P   3,C  10,C  12)          117.4803         0.393272   
    142. A(C  12,C  10,H  42)          110.9855         0.325346   
    143. A(P   3,C  11,C  13)          115.1018         0.392477   
    144. A(H  39,C  11,H  40)          107.6624         0.289970   
    145. A(C  13,C  11,H  40)          109.6690         0.325918   
    146. A(P   3,C  11,H  40)          106.4187         0.347262   
    147. A(C  13,C  11,H  39)          110.4873         0.325155   
    148. A(P   3,C  11,H  39)          107.1784         0.346430   
    149. A(C  10,C  12,H  60)          111.9337         0.325623   
    150. A(H  60,C  12,H  62)          107.7875         0.290052   
    151. A(H  61,C  12,H  62)          107.2828         0.290000   
    152. A(C  10,C  12,H  62)          112.3094         0.325694   
    153. A(H  60,C  12,H  61)          107.1760         0.289939   
    154. A(C  10,C  12,H  61)          110.1048         0.325561   
    155. A(H  58,C  13,H  59)          107.4269         0.289204   
    156. A(H  57,C  13,H  59)          100.9442         0.289415   
    157. A(C  11,C  13,H  59)          112.0969         0.324446   
    158. A(C  11,C  13,H  58)          110.5578         0.325725   
    159. A(C  11,C  13,H  57)          113.8665         0.325975   
    160. A(H  57,C  13,H  58)          111.4403         0.290505   
    161. A(Cr  1,P  15,C  17)          106.9345         0.475741   
    162. A(C  18,P  15,C  19)          103.5797         0.418917   
    163. A(C  17,P  15,C  19)          104.6653         0.418923   
    164. A(Cr  1,P  15,C  19)          119.9792         0.474545   
    165. A(C  17,P  15,C  18)          101.2895         0.419941   
    166. A(Cr  1,P  15,C  18)          118.1150         0.475735   
    167. A(C  21,P  16,C  22)          102.0808         0.420566   
    168. A(C  20,P  16,C  22)           99.0963         0.418077   
    169. A(Cr  1,P  16,C  22)          121.7017         0.468260   
    170. A(C  20,P  16,C  21)          102.2527         0.418839   
    171. A(Cr  1,P  16,C  21)          120.5426         0.469138   
    172. A(Cr  1,P  16,C  20)          107.5858         0.466284   
    173. A(H  27,C  17,H  28)          107.4836         0.289693   
    174. A(C  20,C  17,H  28)          111.3671         0.325371   
    175. A(P  15,C  17,H  28)          111.6327         0.346869   
    176. A(C  20,C  17,H  27)          110.5284         0.325094   
    177. A(P  15,C  17,H  27)          106.9679         0.346567   
    178. A(P  15,C  17,C  20)          108.7711         0.392355   
    179. A(P  15,C  18,C  23)          118.5812         0.392713   
    180. A(H  37,C  18,H  38)          104.0640         0.290118   
    181. A(C  23,C  18,H  38)          110.9494         0.325268   
    182. A(P  15,C  18,H  38)          105.8022         0.346445   
    183. A(C  23,C  18,H  37)          110.2406         0.326263   
    184. A(P  15,C  18,H  37)          106.1160         0.347530   
    185. A(P  15,C  19,C  24)          118.4707         0.391398   
    186. A(H  35,C  19,H  36)          106.9552         0.289502   
    187. A(C  24,C  19,H  36)          110.7939         0.324681   
    188. A(C  24,C  19,H  35)          109.1407         0.325529   
    189. A(P  15,C  19,H  35)          105.2050         0.346260   
    190. A(P  15,C  19,H  36)          105.5981         0.345338   
    191. A(H  29,C  20,H  30)          107.2971         0.289457   
    192. A(C  17,C  20,H  30)          110.9633         0.324977   
    193. A(P  16,C  20,H  30)          110.4761         0.345042   
    194. A(C  17,C  20,H  29)          110.5659         0.325210   
    195. A(P  16,C  20,H  29)          107.3117         0.345294   
    196. A(P  16,C  20,C  17)          110.1256         0.390708   
    197. A(H  31,C  21,H  32)          105.5603         0.289739   
    198. A(C  25,C  21,H  32)          110.4190         0.325734   
    199. A(P  16,C  21,H  32)          106.3725         0.347566   
    200. A(C  25,C  21,H  31)          110.9448         0.325224   
    201. A(P  16,C  21,H  31)          105.3009         0.347008   
    202. A(P  16,C  21,C  25)          117.4581         0.393274   
    203. A(P  16,C  22,C  26)          114.7049         0.390857   
    204. A(H  33,C  22,H  34)          108.0414         0.290434   
    205. A(C  26,C  22,H  34)          110.3198         0.323868   
    206. A(P  16,C  22,H  34)          107.2134         0.346389   
    207. A(C  26,C  22,H  33)          109.7253         0.325235   
    208. A(P  16,C  22,H  33)          106.5714         0.347887   
    209. A(H  67,C  23,H  68)          107.2805         0.290041   
    210. A(C  18,C  23,H  68)          111.9850         0.325948   
    211. A(H  66,C  23,H  67)          107.0752         0.289862   
    212. A(C  18,C  23,H  67)          109.8681         0.325491   
    213. A(C  18,C  23,H  66)          112.4479         0.325738   
    214. A(H  66,C  23,H  68)          107.9314         0.290251   
    215. A(H  64,C  24,H  65)          107.2427         0.290010   
    216. A(H  63,C  24,H  65)          107.9587         0.290532   
    217. A(C  19,C  24,H  65)          111.0344         0.325655   
    218. A(H  63,C  24,H  64)          107.5649         0.290103   
    219. A(C  19,C  24,H  64)          109.8886         0.325152   
    220. A(C  19,C  24,H  63)          112.9279         0.325765   
    221. A(H  70,C  25,H  71)          107.1533         0.289935   
    222. A(H  69,C  25,H  71)          107.7713         0.290016   
    223. A(C  21,C  25,H  71)          111.9173         0.325598   
    224. A(H  69,C  25,H  70)          107.3091         0.290011   
    225. A(C  21,C  25,H  70)          110.1201         0.325592   
    226. A(C  21,C  25,H  69)          112.3228         0.325686   
    227. A(H  73,C  26,H  74)          121.8448         0.267177   
    228. A(H  72,C  26,H  74)           76.7009         0.263728   
    229. A(C  22,C  26,H  74)          121.6205         0.297341   
    230. A(H  72,C  26,H  73)          107.3493         0.286561   
    231. A(C  22,C  26,H  73)          110.5181         0.324566   
    232. A(C  22,C  26,H  72)          111.7391         0.320006   
    233. D(C   5,P   2,Cr  1,I   0)    174.8097         0.001832   
    234. D(C   4,P   2,Cr  1,P   3)     18.3890         0.001832   
    235. D(C   5,P   2,Cr  1,P   3)    -94.8098         0.001832   
    236. D(C   4,P   2,Cr  1,I  14)    107.9985         0.001832   
    237. D(C   4,P   2,Cr  1,I   0)    -71.9915         0.001832   
    238. D(C   6,P   2,Cr  1,I   0)     46.7807         0.001832   
    239. D(C   4,P   2,Cr  1,P  16)   -161.5792         0.001832   
    240. D(C   5,P   2,Cr  1,I  14)     -5.2003         0.001832   
    241. D(C   5,P   2,Cr  1,P  16)     85.2220         0.001832   
    242. D(C  10,P   3,Cr  1,I   0)   -150.0972         0.001782   
    243. D(C  11,P   3,Cr  1,I   0)    -19.5115         0.001782   
    244. D(C  10,P   3,Cr  1,I  14)     29.9086         0.001782   
    245. D(C   9,P   3,Cr  1,P   2)      6.8356         0.001782   
    246. D(C  10,P   3,Cr  1,P   2)    123.3105         0.001782   
    247. D(C  10,P   3,Cr  1,P  15)    -56.6334         0.001782   
    248. D(C   9,P   3,Cr  1,I   0)     93.4278         0.001782   
    249. D(C   9,P   3,Cr  1,I  14)    -86.5663         0.001782   
    250. D(C   9,P   3,Cr  1,P  15)   -173.1084         0.001782   
    251. D(C   9,C   4,P   2,C   5)     76.9622         0.003769   
    252. D(H  46,C   4,P   2,Cr  1)     72.1143         0.003769   
    253. D(H  45,C   4,P   2,C   6)     61.1717         0.003769   
    254. D(H  45,C   4,P   2,Cr  1)   -170.5518         0.003769   
    255. D(H  45,C   4,P   2,C   5)    -46.3012         0.003769   
    256. D(C   9,C   4,P   2,C   6)   -175.5649         0.003769   
    257. D(C   9,C   4,P   2,Cr  1)    -47.2883         0.003769   
    258. D(H  47,C   5,P   2,Cr  1)     52.2206         0.003768   
    259. D(C   7,C   5,P   2,C   6)    -47.2002         0.003768   
    260. D(H  47,C   5,P   2,C   4)    -64.0880         0.003768   
    261. D(C   7,C   5,P   2,C   4)     61.0952         0.003768   
    262. D(C   7,C   5,P   2,Cr  1)    177.4038         0.003768   
    263. D(H  47,C   5,P   2,C   6)   -172.3834         0.003768   
    264. D(H  48,C   5,P   2,Cr  1)    -57.7582         0.003768   
    265. D(H  50,C   6,P   2,Cr  1)    -17.5644         0.003707   
    266. D(H  49,C   6,P   2,Cr  1)     95.3550         0.003707   
    267. D(H  49,C   6,P   2,C   4)   -144.7258         0.003707   
    268. D(C   8,C   6,P   2,C   5)     85.7852         0.003707   
    269. D(C   8,C   6,P   2,C   4)    -19.9294         0.003707   
    270. D(H  49,C   6,P   2,C   5)    -39.0113         0.003707   
    271. D(C   8,C   6,P   2,Cr  1)   -139.8486         0.003707   
    272. D(H  51,C   7,C   5,H  48)    -59.4018         0.011905   
    273. D(H  52,C   7,C   5,H  47)    -54.9391         0.011905   
    274. D(H  52,C   7,C   5,P   2)   -177.5787         0.011905   
    275. D(H  51,C   7,C   5,P   2)     63.3875         0.011905   
    276. D(H  52,C   7,C   5,H  48)     59.6319         0.011905   
    277. D(H  51,C   7,C   5,H  47)   -173.9729         0.011905   
    278. D(H  55,C   8,C   6,H  49)    -56.1640         0.011791   
    279. D(H  55,C   8,C   6,P   2)   -178.3880         0.011791   
    280. D(H  54,C   8,C   6,H  50)    -57.1412         0.011791   
    281. D(H  54,C   8,C   6,H  49)   -174.6518         0.011791   
    282. D(H  54,C   8,C   6,P   2)     63.1242         0.011791   
    283. D(H  55,C   8,C   6,H  50)     61.3467         0.011791   
    284. D(H  43,C   9,C   4,P   2)    177.9233         0.011780   
    285. D(P   3,C   9,C   4,H  45)    178.7017         0.011780   
    286. D(P   3,C   9,C   4,P   2)     55.2707         0.011780   
    287. D(H  44,C   9,P   3,Cr  1)     82.7446         0.003659   
    288. D(H  43,C   9,P   3,C  11)    -33.0843         0.003659   
    289. D(H  43,C   9,P   3,C  10)     71.4920         0.003659   
    290. D(H  43,C   9,P   3,Cr  1)   -160.6133         0.003659   
    291. D(C   4,C   9,P   3,C  11)     89.8681         0.003659   
    292. D(C   4,C   9,P   3,Cr  1)    -37.6609         0.003659   
    293. D(P   3,C   9,C   4,H  46)    -61.8931         0.011780   
    294. D(H  43,C   9,C   4,H  45)    -58.6457         0.011780   
    295. D(C   4,C   9,P   3,C  10)   -165.5557         0.003659   
    296. D(H  43,C   9,C   4,H  46)     60.7595         0.011780   
    297. D(H  41,C  10,P   3,C  11)    -71.8469         0.003813   
    298. D(H  41,C  10,P   3,Cr  1)     66.8125         0.003813   
    299. D(C  12,C  10,P   3,C  11)     52.3347         0.003813   
    300. D(C  12,C  10,P   3,C   9)    -49.8407         0.003813   
    301. D(C  12,C  10,P   3,Cr  1)   -169.0059         0.003813   
    302. D(H  42,C  10,P   3,Cr  1)    -44.8839         0.003813   
    303. D(H  41,C  10,P   3,C   9)   -174.0224         0.003813   
    304. D(H  40,C  11,P   3,Cr  1)     48.8902         0.003765   
    305. D(H  39,C  11,P   3,C   9)     46.5926         0.003765   
    306. D(H  39,C  11,P   3,C  10)    -58.1326         0.003765   
    307. D(H  39,C  11,P   3,Cr  1)    163.8618         0.003765   
    308. D(C  13,C  11,P   3,C  10)     65.1915         0.003765   
    309. D(C  13,C  11,P   3,C   9)    169.9166         0.003765   
    310. D(C  13,C  11,P   3,Cr  1)    -72.8141         0.003765   
    311. D(H  61,C  12,C  10,H  42)     57.0741         0.011879   
    312. D(H  61,C  12,C  10,H  41)    -59.5925         0.011879   
    313. D(H  61,C  12,C  10,P   3)    178.2948         0.011879   
    314. D(H  60,C  12,C  10,H  42)    -62.0306         0.011879   
    315. D(H  60,C  12,C  10,H  41)   -178.6972         0.011879   
    316. D(H  60,C  12,C  10,P   3)     59.1901         0.011879   
    317. D(H  58,C  13,C  11,H  40)     62.0623         0.011848   
    318. D(H  58,C  13,C  11,H  39)    -56.4609         0.011848   
    319. D(H  58,C  13,C  11,P   3)   -178.0087         0.011848   
    320. D(H  57,C  13,C  11,H  40)    -64.2955         0.011848   
    321. D(H  57,C  13,C  11,H  39)    177.1813         0.011848   
    322. D(H  57,C  13,C  11,P   3)     55.6335         0.011848   
    323. D(C  19,P  15,P   2,C   4)     61.2104         0.001500   
    324. D(C  18,P  15,P   2,C   6)     51.9993         0.001500   
    325. D(C  18,P  15,P   2,C   5)   -179.9844         0.001500   
    326. D(C  17,P  15,P   2,C   6)    -61.2556         0.001500   
    327. D(C  17,P  15,P   2,C   5)     66.7608         0.001500   
    328. D(C  17,P  15,P   2,C   4)    179.9518         0.001500   
    329. D(C  19,P  15,Cr  1,I   0)    133.1973         0.001832   
    330. D(C  18,P  15,Cr  1,P  16)     94.7853         0.001832   
    331. D(C  18,P  15,Cr  1,I  14)   -174.7837         0.001832   
    332. D(C  18,P  15,Cr  1,P   3)    -85.1828         0.001832   
    333. D(C  18,P  15,Cr  1,I   0)      5.2062         0.001832   
    334. D(C  18,P  15,P   2,C   4)    -66.7934         0.001500   
    335. D(C  17,P  15,Cr  1,P  16)    -18.4618         0.001832   
    336. D(C  17,P  15,Cr  1,I  14)     71.9692         0.001832   
    337. D(C  17,P  15,Cr  1,P   3)    161.5701         0.001832   
    338. D(C  19,P  15,P   2,C   5)    -51.9806         0.001500   
    339. D(C  17,P  15,Cr  1,I   0)   -108.0409         0.001832   
    340. D(C  22,P  16,P   3,C  10)     49.6119         0.001500   
    341. D(C  21,P  16,P   3,C  11)    -49.2557         0.001500   
    342. D(C  21,P  16,P   3,C  10)   -179.8395         0.001500   
    343. D(C  21,P  16,P   3,C   9)     63.6757         0.001500   
    344. D(C  20,P  16,P   3,C  10)    -63.3935         0.001500   
    345. D(C  20,P  16,P   3,C   9)   -179.8784         0.001500   
    346. D(C  22,P  16,Cr  1,I   0)   -160.2987         0.001782   
    347. D(C  21,P  16,Cr  1,P  15)   -123.2205         0.001782   
    348. D(C  21,P  16,Cr  1,I  14)    150.2421         0.001782   
    349. D(C  21,P  16,Cr  1,P   2)     56.8355         0.001782   
    350. D(C  20,P  16,P   3,C  11)     67.1902         0.001500   
    351. D(C  21,P  16,Cr  1,I   0)    -29.7520         0.001782   
    352. D(C  20,P  16,Cr  1,P  15)     -6.7647         0.001782   
    353. D(C  20,P  16,Cr  1,I  14)    -93.3021         0.001782   
    354. D(C  22,P  16,P   3,C   9)    -66.8729         0.001500   
    355. D(C  20,P  16,Cr  1,P   2)    173.2913         0.001782   
    356. D(C  20,P  16,Cr  1,I   0)     86.7038         0.001782   
    357. D(C  20,C  17,P  15,C  19)    175.6414         0.003769   
    358. D(C  20,C  17,P  15,C  18)    -76.9169         0.003769   
    359. D(C  20,C  17,P  15,Cr  1)     47.3540         0.003769   
    360. D(H  28,C  17,P  15,Cr  1)    170.6355         0.003769   
    361. D(H  27,C  17,P  15,C  19)     56.2399         0.003769   
    362. D(H  27,C  17,P  15,C  18)    163.6816         0.003769   
    363. D(H  27,C  17,P  15,Cr  1)    -72.0475         0.003769   
    364. D(H  38,C  18,P  15,Cr  1)    -51.8479         0.003769   
    365. D(H  37,C  18,P  15,C  19)    -77.0758         0.003769   
    366. D(H  37,C  18,P  15,C  17)    174.6351         0.003769   
    367. D(H  37,C  18,P  15,Cr  1)     58.3127         0.003769   
    368. D(C  23,C  18,P  15,C  19)     47.5002         0.003769   
    369. D(C  23,C  18,P  15,C  17)    -60.7889         0.003769   
    370. D(C  23,C  18,P  15,Cr  1)   -177.1113         0.003769   
    371. D(H  36,C  19,P  15,Cr  1)    -95.6481         0.003706   
    372. D(H  35,C  19,P  15,C  18)    151.6319         0.003706   
    373. D(H  35,C  19,P  15,C  17)   -102.6210         0.003706   
    374. D(H  35,C  19,P  15,Cr  1)     17.2836         0.003706   
    375. D(C  24,C  19,P  15,C  18)    -86.0975         0.003706   
    376. D(C  24,C  19,P  15,C  17)     19.6495         0.003706   
    377. D(C  24,C  19,P  15,Cr  1)    139.5541         0.003706   
    378. D(H  29,C  20,C  17,H  28)    -60.3039         0.011788   
    379. D(H  29,C  20,C  17,H  27)   -179.7089         0.011788   
    380. D(H  29,C  20,C  17,P  15)     63.1365         0.011788   
    381. D(P  16,C  20,C  17,H  28)   -178.7275         0.011788   
    382. D(P  16,C  20,C  17,H  27)     61.8675         0.011788   
    383. D(P  16,C  20,C  17,P  15)    -55.2871         0.011788   
    384. D(H  30,C  20,P  16,Cr  1)    160.5384         0.003660   
    385. D(H  29,C  20,P  16,C  22)    149.6877         0.003660   
    386. D(H  29,C  20,P  16,C  21)     45.1115         0.003660   
    387. D(H  29,C  20,P  16,Cr  1)    -82.7932         0.003660   
    388. D(C  17,C  20,P  16,C  22)    -89.9078         0.003660   
    389. D(C  17,C  20,P  16,C  21)    165.5160         0.003660   
    390. D(C  17,C  20,P  16,Cr  1)     37.6113         0.003660   
    391. D(H  32,C  21,P  16,Cr  1)    -66.6506         0.003813   
    392. D(H  31,C  21,P  16,C  22)   -176.3069         0.003813   
    393. D(H  31,C  21,P  16,C  20)    -74.0718         0.003813   
    394. D(H  31,C  21,P  16,Cr  1)     45.0800         0.003813   
    395. D(C  25,C  21,P  16,C  22)    -52.2635         0.003813   
    396. D(C  25,C  21,P  16,C  20)     49.9716         0.003813   
    397. D(C  25,C  21,P  16,Cr  1)    169.1234         0.003813   
    398. D(H  34,C  22,P  16,Cr  1)   -163.3850         0.003765   
    399. D(H  33,C  22,P  16,C  21)    174.1227         0.003765   
    400. D(H  33,C  22,P  16,C  20)     69.4046         0.003765   
    401. D(H  33,C  22,P  16,Cr  1)    -47.8878         0.003765   
    402. D(C  26,C  22,P  16,C  21)    -64.2419         0.003765   
    403. D(C  26,C  22,P  16,C  20)   -168.9600         0.003765   
    404. D(C  26,C  22,P  16,Cr  1)     73.7476         0.003765   
    405. D(H  67,C  23,C  18,H  38)     54.8494         0.011908   
    406. D(H  67,C  23,C  18,H  37)    -59.8906         0.011908   
    407. D(H  67,C  23,C  18,P  15)    177.5761         0.011908   
    408. D(H  66,C  23,C  18,H  38)    -64.3010         0.011908   
    409. D(H  66,C  23,C  18,H  37)   -179.0410         0.011908   
    410. D(H  66,C  23,C  18,P  15)     58.4256         0.011908   
    411. D(H  64,C  24,C  19,H  36)     56.1452         0.011782   
    412. D(H  64,C  24,C  19,H  35)    -61.3709         0.011782   
    413. D(H  64,C  24,C  19,P  15)    178.3620         0.011782   
    414. D(H  63,C  24,C  19,H  36)    -63.9529         0.011782   
    415. D(H  63,C  24,C  19,H  35)    178.5310         0.011782   
    416. D(H  63,C  24,C  19,P  15)     58.2639         0.011782   
    417. D(H  70,C  25,C  21,H  32)     59.4893         0.011881   
    418. D(H  70,C  25,C  21,H  31)    -57.1890         0.011881   
    419. D(H  70,C  25,C  21,P  16)   -178.3421         0.011881   
    420. D(H  69,C  25,C  21,H  32)    -60.0455         0.011881   
    421. D(H  69,C  25,C  21,H  31)   -176.7238         0.011881   
    422. D(H  69,C  25,C  21,P  16)     62.1231         0.011881   
    423. D(H  73,C  26,C  22,H  34)     57.7120         0.011330   
    424. D(H  73,C  26,C  22,H  33)    -61.2098         0.011330   
    425. D(H  73,C  26,C  22,P  16)    178.8915         0.011330   
    426. D(H  72,C  26,C  22,H  34)    -61.7601         0.011330   
    427. D(H  72,C  26,C  22,H  33)    179.3180         0.011330   
    428. D(H  72,C  26,C  22,P  16)     59.4194         0.011330   
    -----------------------------------------------------------------

Number of atoms                         .... 75
Number of degrees of freedom            .... 428


         *************************************************************
         *                GEOMETRY OPTIMIZATION CYCLE   1            *
         *************************************************************
---------------------------------
CARTESIAN COORDINATES (ANGSTROEM)
---------------------------------
  I      5.005623    4.746140    2.280917
  Cr     2.904582    4.370358    3.999448
  P      4.101189    5.817000    5.549268
  P      4.191447    2.646214    5.187106
  C      5.542404    4.853252    6.181187
  C      3.262858    6.285505    7.125018
  C      4.827766    7.409083    4.952545
  C      4.023420    7.139304    8.127275
  C      6.198122    7.820796    5.470955
  C      5.062294    3.470501    6.598360
  C      3.332221    1.245654    6.021324
  C      5.636517    1.803871    4.407228
  C      4.159342    0.365156    6.945173
  C      5.288232    0.802212    3.316619
  I      0.803850    3.994388    5.718463
  P      1.706076    2.923574    2.451034
  P      1.618566    6.094890    2.810758
  C      0.264394    3.887749    1.820932
  C      2.543030    2.453686    0.874996
  C      0.979557    1.331577    3.048184
  C      0.744923    5.269660    1.401837
  C      2.478197    7.493016    1.972839
  C      0.176762    6.940932    3.592745
  C      1.779155    1.605502   -0.129463
  C     -0.394408    0.923776    2.535954
  C      1.649587    8.374391    1.051205
  C      0.542191    7.962130    4.668477
  H     -0.452823    3.964106    2.643666
  H     -0.235189    3.373015    0.996611
  H      1.457911    5.194379    0.576119
  H     -0.090514    5.886407    1.055292
  H      3.312635    7.036192    1.431409
  H      2.934867    8.091851    2.763592
  H     -0.444778    6.159548    4.024325
  H     -0.391452    7.421390    2.789839
  H      0.943515    1.423305    4.135565
  H      1.725243    0.562170    2.816828
  H      3.469391    1.956393    1.161066
  H      2.874540    3.393406    0.421838
  H      6.198364    1.316195    5.210042
  H      6.266728    2.592251    3.993928
  H      2.880083    0.645985    5.227584
  H      2.494624    1.699623    6.558957
  H      5.897117    2.853953    6.945779
  H      4.347648    3.544308    7.423196
  H      6.039927    5.367563    7.007090
  H      6.261178    4.778039    5.359822
  H      2.937774    5.344180    7.580389
  H      2.331537    6.773491    6.840827
  H      4.079463    8.177645    5.178299
  H      4.869364    7.314922    3.865518
  H      4.263866    8.124331    7.724600
  H      3.413394    7.294932    9.021428
  H      4.955511    6.671058    8.451415
  H      6.963302    7.104655    5.167077
  H      6.478050    8.791630    5.052285
  H      6.232208    7.908929    6.557619
  H      4.684675    1.219964    2.510336
  H      6.191377    0.324234    2.932521
  H      4.625413    0.006818    3.682619
  H      4.605111    0.936722    7.762624
  H      3.527467   -0.404001    7.396218
  H      4.966650   -0.146788    6.416971
  H     -0.434764    0.838826    1.449378
  H     -0.673953   -0.047681    2.953600
  H     -1.156567    1.640532    2.845932
  H      0.850048    2.079191   -0.454234
  H      2.389131    1.448593   -1.023417
  H      1.532135    0.621055    0.271299
  H      0.843890    8.887059    1.581296
  H      2.280894    9.142537    0.597963
  H      1.201068    7.802956    0.234961
  H      1.190706    8.773538    4.264163
  H     -0.356516    8.433312    5.069569
  H      1.579632    7.857780    5.337462

----------------------------
CARTESIAN COORDINATES (A.U.)
----------------------------
  NO LB      ZA    FRAG     MASS         X           Y           Z
   0 I    25.0000*   0   126.900    9.459257    8.968905    4.310309
   1 Cr   24.0000    0    52.000    5.488865    8.258780    7.557862
   2 P    15.0000    0    30.974    7.750125   10.992537   10.486596
   3 P    15.0000    0    30.974    7.920687    5.000621    9.802209
   4 C     6.0000    0    12.011   10.473626    9.171318   11.680751
   5 C     6.0000    0    12.011    6.165908   11.877882   13.464332
   6 C     6.0000    0    12.011    9.123156   14.001137    9.358953
   7 C     6.0000    0    12.011    7.603162   13.491330   15.358324
   8 C     6.0000    0    12.011   11.712753   14.779163   10.338607
   9 C     6.0000    0    12.011    9.566349    6.558296   12.469094
  10 C     6.0000    0    12.011    6.296985    2.353944   11.378653
  11 C     6.0000    0    12.011   10.651474    3.408822    8.328454
  12 C     6.0000    0    12.011    7.860017    0.690044   13.124476
  13 C     6.0000    0    12.011    9.993311    1.515961    6.267502
  14 I    25.0000*   0   126.900    1.519056    7.548299   10.806329
  15 P    15.0000    0    30.974    3.224017    5.524755    4.631783
  16 P    15.0000    0    30.974    3.058647   11.517674    5.311564
  17 C     6.0000    0    12.011    0.499632    7.346781    3.441063
  18 C     6.0000    0    12.011    4.805631    4.636794    1.653502
  19 C     6.0000    0    12.011    1.851095    2.516316    5.760233
  20 C     6.0000    0    12.011    1.407701    9.958214    2.649088
  21 C     6.0000    0    12.011    4.683114   14.159748    3.728125
  22 C     6.0000    0    12.011    0.334032   13.116461    6.789304
  23 C     6.0000    0    12.011    3.362116    3.033960   -0.244649
  24 C     6.0000    0    12.011   -0.745323    1.745684    4.792258
  25 C     6.0000    0    12.011    3.117269   15.825305    1.986489
  26 C     6.0000    0    12.011    1.024592   15.046246    8.822142
  27 H     1.0000    0     1.008   -0.855712    7.491075    4.995805
  28 H     1.0000    0     1.008   -0.444442    6.374074    1.883321
  29 H     1.0000    0     1.008    2.755053    9.815953    1.088708
  30 H     1.0000    0     1.008   -0.171046   11.123697    1.994212
  31 H     1.0000    0     1.008    6.259974   13.296475    2.704971
  32 H     1.0000    0     1.008    5.546094   15.291383    5.222432
  33 H     1.0000    0     1.008   -0.840508   11.639859    7.604872
  34 H     1.0000    0     1.008   -0.739737   14.024394    5.272031
  35 H     1.0000    0     1.008    1.782985    2.689656    7.815086
  36 H     1.0000    0     1.008    3.260237    1.062348    5.323034
  37 H     1.0000    0     1.008    6.556199    3.697047    2.194097
  38 H     1.0000    0     1.008    5.432092    6.412608    0.797158
  39 H     1.0000    0     1.008   11.713211    2.487248    9.845552
  40 H     1.0000    0     1.008   11.842400    4.898644    7.547429
  41 H     1.0000    0     1.008    5.442568    1.220735    9.878702
  42 H     1.0000    0     1.008    4.714156    3.211823   12.394632
  43 H     1.0000    0     1.008   11.143935    5.393190   13.125621
  44 H     1.0000    0     1.008    8.215865    6.697771   14.027807
  45 H     1.0000    0     1.008   11.413809   10.143224   13.241481
  46 H     1.0000    0     1.008   11.831912    9.029186   10.128595
  47 H     1.0000    0     1.008    5.551589   10.099036   14.324859
  48 H     1.0000    0     1.008    4.405967   12.800043   12.927290
  49 H     1.0000    0     1.008    7.709067   15.453510    9.785567
  50 H     1.0000    0     1.008    9.201764   13.823199    7.304770
  51 H     1.0000    0     1.008    8.057538   15.352761   14.597379
  52 H     1.0000    0     1.008    6.450380   13.785424   17.048028
  53 H     1.0000    0     1.008    9.364559   12.606472   15.970860
  54 H     1.0000    0     1.008   13.158735   13.425851    9.764360
  55 H     1.0000    0     1.008   12.241741   16.613773    9.547435
  56 H     1.0000    0     1.008   11.777166   14.945710   12.392103
  57 H     1.0000    0     1.008    8.852752    2.305398    4.743847
  58 H     1.0000    0     1.008   11.700008    0.612714    5.541662
  59 H     1.0000    0     1.008    8.740763    0.012883    6.959142
  60 H     1.0000    0     1.008    8.702398    1.770149   14.669233
  61 H     1.0000    0     1.008    6.665947   -0.763452   13.976827
  62 H     1.0000    0     1.008    9.385608   -0.277390   12.126318
  63 H     1.0000    0     1.008   -0.821585    1.585151    2.738927
  64 H     1.0000    0     1.008   -1.273587   -0.090104    5.581495
  65 H     1.0000    0     1.008   -2.185595    3.100155    5.378032
  66 H     1.0000    0     1.008    1.606357    3.929102   -0.858378
  67 H     1.0000    0     1.008    4.514804    2.737444   -1.933978
  68 H     1.0000    0     1.008    2.895316    1.173624    0.512680
  69 H     1.0000    0     1.008    1.594720   16.794109    2.988216
  70 H     1.0000    0     1.008    4.310266   17.276891    1.129987
  71 H     1.0000    0     1.008    2.269689   14.745451    0.444013
  72 H     1.0000    0     1.008    2.250108   16.579584    8.058100
  73 H     1.0000    0     1.008   -0.673718   15.936649    9.580097
  74 H     1.0000    0     1.008    2.985072   14.849052   10.086342
* core charge reduced due to ECP

--------------------------------
INTERNAL COORDINATES (ANGSTROEM)
--------------------------------
 I      0   0   0     0.000000000000     0.00000000     0.00000000
 Cr     1   0   0     2.740243322182     0.00000000     0.00000000
 P      2   1   0     2.434457081772    86.61121896     0.00000000
 P      2   1   3     2.457483047043    89.87384218   278.52703563
 C      3   2   1     1.845327367697   106.95051871   288.00852298
 C      3   2   1     1.845341163618   118.11095859   174.80971846
 C      3   2   1     1.848977926062   119.95823689    46.78070298
 C      6   3   2     1.520509274350   118.56677972   177.40383785
 C      7   3   2     1.521884831509   118.47940716   220.15142521
 C      5   3   2     1.522018644351   108.78230056   312.71167496
 C      4   2   1     1.842759008815   120.52076308   209.90280424
 C      4   2   1     1.845529447862   121.73716417   340.48847030
 C     11   4   2     1.520823283410   117.48026852   190.99406979
 C     12   4   2     1.521199933945   115.10181571   287.18586410
 I      2   1   3     2.740336117089   179.98752263   306.35725612
 P      2   1   3     2.434581506570    93.44417466   179.99492203
 P      2   1   3     2.457810340694    90.09463490    98.52798667
 C     16   2   1     1.845293840430   106.93448754   251.95912465
 C     16   2   1     1.845313912416   118.11504611     5.20621642
 C     16   2   1     1.849019817941   119.97918035   133.19733730
 C     18  16   2     1.521915722131   108.77112335    47.35398907
 C     17   2   1     1.842777781171   120.54257307   330.24795678
 C     17   2   1     1.845559374263   121.70167196   199.70125006
 C     19  16   2     1.520479142345   118.58124449   182.88872707
 C     20  16   2     1.521992734931   118.47067225   139.55411886
 C     22  17   2     1.520797047452   117.45813753   169.12344510
 C     23  17   2     1.527606653751   114.70490027    73.74760785
 H     18  16   2     1.094130672447   106.96789693   287.95248798
 H     18  16   2     1.092721146826   111.63266856   170.63549296
 H     21  18  16     1.093539376735   110.56590691    63.13650723
 H     21  18  16     1.094726007254   110.96328253   182.07193757
 H     22  17   2     1.094587463870   105.30093047    45.08004948
 H     22  17   2     1.091989694122   106.37245104   293.34942691
 H     23  17   2     1.087719669031   106.57139783   312.11216780
 H     23  17   2     1.094698489753   107.21337532   196.61502618
 H     20  16   2     1.091838723717   105.20496995    17.28356635
 H     20  16   2     1.096156621625   105.59806627   264.35187763
 H     19  16   2     1.089623953643   106.11600443    58.31270300
 H     19  16   2     1.094679755433   105.80218642   308.15206119
 H     12   4   2     1.094536067000   107.17840918   163.86180191
 H     12   4   2     1.090654055184   106.41865326    48.89023097
 H     11   4   2     1.092727987681   106.33107738    66.81246109
 H     11   4   2     1.093940720294   105.31303950   315.11611371
 H     10   5   3     1.094421933700   110.98947528   177.92327666
 H     10   5   3     1.093855365596   110.57725334   296.85796498
 H      5   3   2     1.092776035319   111.62878590   189.44824882
 H      5   3   2     1.094044910343   106.97317500    72.11427447
 H      6   3   2     1.095050181660   105.76629206    52.22060779
 H      6   3   2     1.089152666270   106.22474165   302.24180623
 H      7   3   2     1.096180122811   105.60445979    95.35498115
 H      7   3   2     1.091890094259   105.18935321   342.43560307
 H      8   6   3     1.090980803236   111.95868234    63.38753443
 H      8   6   3     1.093554092602   109.86754711   182.42128901
 H      8   6   3     1.092297974418   112.44088299   301.62421621
 H      9   7   3     1.091193002737   111.03916220    63.12416582
 H      9   7   3     1.093691996531   109.88942583   181.61203093
 H      9   7   3     1.090764323995   112.91424064   301.69082598
 H     14  12   4     1.090363066904   113.86648658    55.63347066
 H     14  12   4     1.091634055608   110.55775767   181.99127230
 H     14  12   4     1.098152251699   112.09685387   301.82437015
 H     13  11   4     1.092530394679   111.93367893    59.19006496
 H     13  11   4     1.092844843532   110.10482102   178.29477203
 H     13  11   4     1.092167780285   112.30942890   297.77727841
 H     25  20  16     1.090638344355   112.92787998    58.26388982
 H     25  20  16     1.093755926952   109.88863585   178.36195497
 H     25  20  16     1.091197566821   111.03440764   296.84150297
 H     24  19  16     1.092290586476   112.44785673    58.42564453
 H     24  19  16     1.093546964115   109.86805319   177.57605515
 H     24  19  16     1.091221871816   111.98497515   296.68742606
 H     26  22  17     1.092233799452   112.32276567    62.12306242
 H     26  22  17     1.092714352771   110.12010190   181.65790972
 H     26  22  17     1.092685075796   111.91725636   300.73368766
 H     27  23  17     1.114640458638   111.73914913    59.41942152
 H     27  23  17     1.091128524354   110.51808374   178.89153634
 H     27  23  17     1.238836262080   121.62053925   332.01695353

---------------------------
INTERNAL COORDINATES (A.U.)
---------------------------
 I      0   0   0     0.000000000000     0.00000000     0.00000000
 Cr     1   0   0     5.178309419230     0.00000000     0.00000000
 P      2   1   0     4.600457169335    86.61121896     0.00000000
 P      2   1   3     4.643969937666    89.87384218   278.52703563
 C      3   2   1     3.487163352378   106.95051871   288.00852298
 C      3   2   1     3.487189422889   118.11095859   174.80971846
 C      3   2   1     3.494061907923   119.95823689    46.78070298
 C      6   3   2     2.873346112609   118.56677972   177.40383785
 C      7   3   2     2.875945538921   118.47940716   220.15142521
 C      5   3   2     2.876198408546   108.78230056   312.71167496
 C      4   2   1     3.482309857476   120.52076308   209.90280424
 C      4   2   1     3.487545228546   121.73716417   340.48847030
 C     11   4   2     2.873939503735   117.48026852   190.99406979
 C     12   4   2     2.874651270096   115.10181571   287.18586410
 I      2   1   3     5.178484776191   179.98752263   306.35725612
 P      2   1   3     4.600692298127    93.44417466   179.99492203
 P      2   1   3     4.644588433031    90.09463490    98.52798667
 C     16   2   1     3.487099995025   106.93448754   251.95912465
 C     16   2   1     3.487137925580   118.11504611     5.20621642
 C     16   2   1     3.494141072101   119.97918035   133.19733730
 C     18  16   2     2.876003913736   108.77112335    47.35398907
 C     17   2   1     3.482345332087   120.54257307   330.24795678
 C     17   2   1     3.487601781248   121.70167196   199.70125006
 C     19  16   2     2.873289171371   118.58124449   182.88872707
 C     20  16   2     2.876149446838   118.47067225   139.55411886
 C     22  17   2     2.873889924960   117.45813753   169.12344510
 C     23  17   2     2.886758215946   114.70490027    73.74760785
 H     18  16   2     2.067607325647   106.96789693   287.95248798
 H     18  16   2     2.064943708246   111.63266856   170.63549296
 H     21  18  16     2.066489938688   110.56590691    63.13650723
 H     21  18  16     2.068732345392   110.96328253   182.07193757
 H     22  17   2     2.068470536338   105.30093047    45.08004948
 H     22  17   2     2.063561462956   106.37245104   293.34942691
 H     23  17   2     2.055492284949   106.57139783   312.11216780
 H     23  17   2     2.068680344850   107.21337532   196.61502618
 H     20  16   2     2.063276170236   105.20496995    17.28356635
 H     20  16   2     2.071435814755   105.59806627   264.35187763
 H     19  16   2     2.059090861346   106.11600443    58.31270300
 H     19  16   2     2.068644942117   105.80218642   308.15206119
 H     12   4   2     2.068373410330   107.17840918   163.86180191
 H     12   4   2     2.061037471149   106.41865326    48.89023097
 H     11   4   2     2.064956635588   106.33107738    66.81246109
 H     11   4   2     2.067248368100   105.31303950   315.11611371
 H     10   5   3     2.068157729649   110.98947528   177.92327666
 H     10   5   3     2.067087071098   110.57725334   296.85796498
 H      5   3   2     2.065047432465   111.62878590   189.44824882
 H      5   3   2     2.067445258759   106.97317500    72.11427447
 H      6   3   2     2.069344946237   105.76629206    52.22060779
 H      6   3   2     2.058200257280   106.22474165   302.24180623
 H      7   3   2     2.071480225560   105.60445979    95.35498115
 H      7   3   2     2.063373246491   105.18935321   342.43560307
 H      8   6   3     2.061654935481   111.95868234    63.38753443
 H      8   6   3     2.066517747647   109.86754711   182.42128901
 H      8   6   3     2.064144028286   112.44088299   301.62421621
 H      9   7   3     2.062055934424   111.03916220    63.12416582
 H      9   7   3     2.066778348306   109.88942583   181.61203093
 H      9   7   3     2.061245849002   112.91424064   301.69082598
 H     14  12   4     2.060487582991   113.86648658    55.63347066
 H     14  12   4     2.062889403560   110.55775767   181.99127230
 H     14  12   4     2.075207009060   112.09685387   301.82437015
 H     13  11   4     2.064583238928   111.93367893    59.19006496
 H     13  11   4     2.065177461144   110.10482102   178.29477203
 H     13  11   4     2.063897997031   112.30942890   297.77727841
 H     25  20  16     2.061007781984   112.92787998    58.26388982
 H     25  20  16     2.066899159292   109.88863585   178.36195497
 H     25  20  16     2.062064559292   111.03440764   296.84150297
 H     24  19  16     2.064130067100   112.44785673    58.42564453
 H     24  19  16     2.066504276758   109.86805319   177.57605515
 H     24  19  16     2.062110489077   111.98497515   296.68742606
 H     26  22  17     2.064022755177   112.32276567    62.12306242
 H     26  22  17     2.064930869342   110.12010190   181.65790972
 H     26  22  17     2.064875543877   111.91725636   300.73368766
 H     27  23  17     2.106365204614   111.73914913    59.41942152
 H     27  23  17     2.061934087938   110.51808374   178.89153634
 H     27  23  17     2.341061260102   121.62053925   332.01695353

---------------------
BASIS SET INFORMATION
---------------------
There are 5 groups of distinct atoms

 Group   1 Type I   : 11s10p8d2f contracted to 6s5p3d2f pattern {521111/34111/611/11}
 Group   2 Type Cr  : 17s11p7d1f contracted to 6s4p4d1f pattern {842111/6311/4111/1}
 Group   3 Type P   : 14s9p3d1f contracted to 5s5p2d1f pattern {73211/51111/21/1}
 Group   4 Type C   : 11s6p2d1f contracted to 5s3p2d1f pattern {62111/411/11/1}
 Group   5 Type H   : 5s1p contracted to 3s1p pattern {311/1}

Atom   0I    basis set group =>   1
Atom   1Cr   basis set group =>   2
Atom   2P    basis set group =>   3
Atom   3P    basis set group =>   3
Atom   4C    basis set group =>   4
Atom   5C    basis set group =>   4
Atom   6C    basis set group =>   4
Atom   7C    basis set group =>   4
Atom   8C    basis set group =>   4
Atom   9C    basis set group =>   4
Atom  10C    basis set group =>   4
Atom  11C    basis set group =>   4
Atom  12C    basis set group =>   4
Atom  13C    basis set group =>   4
Atom  14I    basis set group =>   1
Atom  15P    basis set group =>   3
Atom  16P    basis set group =>   3
Atom  17C    basis set group =>   4
Atom  18C    basis set group =>   4
Atom  19C    basis set group =>   4
Atom  20C    basis set group =>   4
Atom  21C    basis set group =>   4
Atom  22C    basis set group =>   4
Atom  23C    basis set group =>   4
Atom  24C    basis set group =>   4
Atom  25C    basis set group =>   4
Atom  26C    basis set group =>   4
Atom  27H    basis set group =>   5
Atom  28H    basis set group =>   5
Atom  29H    basis set group =>   5
Atom  30H    basis set group =>   5
Atom  31H    basis set group =>   5
Atom  32H    basis set group =>   5
Atom  33H    basis set group =>   5
Atom  34H    basis set group =>   5
Atom  35H    basis set group =>   5
Atom  36H    basis set group =>   5
Atom  37H    basis set group =>   5
Atom  38H    basis set group =>   5
Atom  39H    basis set group =>   5
Atom  40H    basis set group =>   5
Atom  41H    basis set group =>   5
Atom  42H    basis set group =>   5
Atom  43H    basis set group =>   5
Atom  44H    basis set group =>   5
Atom  45H    basis set group =>   5
Atom  46H    basis set group =>   5
Atom  47H    basis set group =>   5
Atom  48H    basis set group =>   5
Atom  49H    basis set group =>   5
Atom  50H    basis set group =>   5
Atom  51H    basis set group =>   5
Atom  52H    basis set group =>   5
Atom  53H    basis set group =>   5
Atom  54H    basis set group =>   5
Atom  55H    basis set group =>   5
Atom  56H    basis set group =>   5
Atom  57H    basis set group =>   5
Atom  58H    basis set group =>   5
Atom  59H    basis set group =>   5
Atom  60H    basis set group =>   5
Atom  61H    basis set group =>   5
Atom  62H    basis set group =>   5
Atom  63H    basis set group =>   5
Atom  64H    basis set group =>   5
Atom  65H    basis set group =>   5
Atom  66H    basis set group =>   5
Atom  67H    basis set group =>   5
Atom  68H    basis set group =>   5
Atom  69H    basis set group =>   5
Atom  70H    basis set group =>   5
Atom  71H    basis set group =>   5
Atom  72H    basis set group =>   5
Atom  73H    basis set group =>   5
Atom  74H    basis set group =>   5
---------------------------------
AUXILIARY/J BASIS SET INFORMATION
---------------------------------
There are 5 groups of distinct atoms

 Group   1 Type I   : 11s5p5d3f1g contracted to 8s4p3d2f1g pattern {41111111/2111/311/21/1}
 Group   2 Type Cr  : 19s5p5d3f3g contracted to 8s5p5d2f3g pattern {121111111/11111/11111/21/111}
 Group   3 Type P   : 14s5p5d2f1g contracted to 8s4p3d1f1g pattern {71111111/2111/311/2/1}
 Group   4 Type C   : 12s5p4d2f1g contracted to 6s4p3d1f1g pattern {711111/2111/211/2/1}
 Group   5 Type H   : 5s2p1d contracted to 3s1p1d pattern {311/2/1}

Atom   0I    basis set group =>   1
Atom   1Cr   basis set group =>   2
Atom   2P    basis set group =>   3
Atom   3P    basis set group =>   3
Atom   4C    basis set group =>   4
Atom   5C    basis set group =>   4
Atom   6C    basis set group =>   4
Atom   7C    basis set group =>   4
Atom   8C    basis set group =>   4
Atom   9C    basis set group =>   4
Atom  10C    basis set group =>   4
Atom  11C    basis set group =>   4
Atom  12C    basis set group =>   4
Atom  13C    basis set group =>   4
Atom  14I    basis set group =>   1
Atom  15P    basis set group =>   3
Atom  16P    basis set group =>   3
Atom  17C    basis set group =>   4
Atom  18C    basis set group =>   4
Atom  19C    basis set group =>   4
Atom  20C    basis set group =>   4
Atom  21C    basis set group =>   4
Atom  22C    basis set group =>   4
Atom  23C    basis set group =>   4
Atom  24C    basis set group =>   4
Atom  25C    basis set group =>   4
Atom  26C    basis set group =>   4
Atom  27H    basis set group =>   5
Atom  28H    basis set group =>   5
Atom  29H    basis set group =>   5
Atom  30H    basis set group =>   5
Atom  31H    basis set group =>   5
Atom  32H    basis set group =>   5
Atom  33H    basis set group =>   5
Atom  34H    basis set group =>   5
Atom  35H    basis set group =>   5
Atom  36H    basis set group =>   5
Atom  37H    basis set group =>   5
Atom  38H    basis set group =>   5
Atom  39H    basis set group =>   5
Atom  40H    basis set group =>   5
Atom  41H    basis set group =>   5
Atom  42H    basis set group =>   5
Atom  43H    basis set group =>   5
Atom  44H    basis set group =>   5
Atom  45H    basis set group =>   5
Atom  46H    basis set group =>   5
Atom  47H    basis set group =>   5
Atom  48H    basis set group =>   5
Atom  49H    basis set group =>   5
Atom  50H    basis set group =>   5
Atom  51H    basis set group =>   5
Atom  52H    basis set group =>   5
Atom  53H    basis set group =>   5
Atom  54H    basis set group =>   5
Atom  55H    basis set group =>   5
Atom  56H    basis set group =>   5
Atom  57H    basis set group =>   5
Atom  58H    basis set group =>   5
Atom  59H    basis set group =>   5
Atom  60H    basis set group =>   5
Atom  61H    basis set group =>   5
Atom  62H    basis set group =>   5
Atom  63H    basis set group =>   5
Atom  64H    basis set group =>   5
Atom  65H    basis set group =>   5
Atom  66H    basis set group =>   5
Atom  67H    basis set group =>   5
Atom  68H    basis set group =>   5
Atom  69H    basis set group =>   5
Atom  70H    basis set group =>   5
Atom  71H    basis set group =>   5
Atom  72H    basis set group =>   5
Atom  73H    basis set group =>   5
Atom  74H    basis set group =>   5
-------------------------
ECP PARAMETER INFORMATION
-------------------------

 Group 1, Type I  ECP Def2-ECP (replacing 28 core electrons, lmax=3)

Atom   0I    ECP group =>   1
Atom  14I    ECP group =>   1



           ************************************************************
           *        Program running with 16 parallel MPI-processes    *
           *              working on a common directory               *
           ************************************************************
------------------------------------------------------------------------------
                             ORCA STARTUP CALCULATIONS
                           -- RI-GTO INTEGRALS CHOSEN --
------------------------------------------------------------------------------
------------------------------------------------------------------------------
                   ___                                                        
                  /   \      - P O W E R E D   B Y -                         
                 /     \                                                     
                 |  |  |   _    _      __       _____    __    __             
                 |  |  |  | |  | |    /  \     |  _  \  |  |  /  |          
                  \  \/   | |  | |   /    \    | | | |  |  | /  /          
                 / \  \   | |__| |  /  /\  \   | |_| |  |  |/  /          
                |  |  |   |  __  | /  /__\  \  |    /   |      \           
                |  |  |   | |  | | |   __   |  |    \   |  |\   \          
                \     /   | |  | | |  |  |  |  | |\  \  |  | \   \       
                 \___/    |_|  |_| |__|  |__|  |_| \__\ |__|  \__/        
                                                                              
                      - O R C A' S   B I G   F R I E N D -                    
                                      &                                       
                       - I N T E G R A L  F E E D E R -                       
                                                                              
 v1 FN, 2020, v2 2021, v3 2022-2024                                           
------------------------------------------------------------------------------


----------------------
SHARK INTEGRAL PACKAGE
----------------------

Number of atoms                             ...     75
Number of basis functions                   ...   1201
Number of shells                            ...    511
Maximum angular momentum                    ...      3
Integral batch strategy                     ... SHARK/LIBINT Hybrid
RI-J (if used) integral strategy            ... SPLIT-RIJ (Revised 2003 algorithm where possible)
Printlevel                                  ...      1
Contraction scheme used                     ... SEGMENTED contraction
Prescreening option                         ... SCHWARTZ
   Thresh                                   ... 1.000e-12
   Tcut                                     ... 1.000e-14
   Tpresel                                  ... 1.000e-14 
Coulomb Range Separation                    ... NOT USED
Exchange Range Separation                   ... NOT USED
Multipole approximations                    ... NOT USED
Finite Nucleus Model                        ... NOT USED
CABS basis                                  ... NOT available
Auxiliary Coulomb fitting basis             ... AVAILABLE
   # of basis functions in Aux-J            ...   1917
   # of shells in Aux-J                     ...    667
   Maximum angular momentum in Aux-J        ...      4
Auxiliary J/K fitting basis                 ... NOT available
Auxiliary Correlation fitting basis         ... NOT available
Auxiliary 'external' fitting basis          ... NOT available

Checking pre-screening integrals            ... done (  0.0 sec) Dimension = 511
Check shell pair data                       ... done (  0.0 sec)
Shell pair information
[...]
  (3) Hindered rotations indicated by low frequency modes are not
      treated as such but are treated as vibrations and this may
      cause some error
  (4) All equations used are the standard statistical mechanics
      equations for an ideal gas
  (5) All vibrations are strictly harmonic

freq.      17.66  E(vib)   ...       0.57 
freq.      34.84  E(vib)   ...       0.54 
freq.      45.67  E(vib)   ...       0.53 
freq.      50.25  E(vib)   ...       0.52 
freq.      52.77  E(vib)   ...       0.52 
freq.      54.88  E(vib)   ...       0.52 
freq.      57.72  E(vib)   ...       0.51 
freq.      62.59  E(vib)   ...       0.51 
freq.      69.93  E(vib)   ...       0.50 
freq.      71.39  E(vib)   ...       0.50 
freq.      73.25  E(vib)   ...       0.49 
freq.      79.84  E(vib)   ...       0.49 
freq.      87.22  E(vib)   ...       0.48 
freq.      87.63  E(vib)   ...       0.48 
freq.      96.81  E(vib)   ...       0.46 
freq.      98.13  E(vib)   ...       0.46 
freq.     100.52  E(vib)   ...       0.46 
freq.     102.81  E(vib)   ...       0.46 
freq.     111.53  E(vib)   ...       0.45 
freq.     120.80  E(vib)   ...       0.44 
freq.     122.21  E(vib)   ...       0.43 
freq.     131.56  E(vib)   ...       0.42 
freq.     132.81  E(vib)   ...       0.42 
freq.     138.40  E(vib)   ...       0.42 
freq.     140.46  E(vib)   ...       0.41 
freq.     149.28  E(vib)   ...       0.40 
freq.     155.38  E(vib)   ...       0.40 
freq.     170.19  E(vib)   ...       0.38 
freq.     181.77  E(vib)   ...       0.37 
freq.     182.71  E(vib)   ...       0.37 
freq.     191.48  E(vib)   ...       0.36 
freq.     198.09  E(vib)   ...       0.35 
freq.     199.75  E(vib)   ...       0.35 
freq.     201.36  E(vib)   ...       0.35 
freq.     203.82  E(vib)   ...       0.35 
freq.     203.92  E(vib)   ...       0.35 
freq.     222.85  E(vib)   ...       0.33 
freq.     228.90  E(vib)   ...       0.32 
freq.     247.79  E(vib)   ...       0.31 
freq.     249.75  E(vib)   ...       0.31 
freq.     251.80  E(vib)   ...       0.30 
freq.     257.62  E(vib)   ...       0.30 
freq.     260.45  E(vib)   ...       0.30 
freq.     266.29  E(vib)   ...       0.29 
freq.     268.79  E(vib)   ...       0.29 
freq.     278.44  E(vib)   ...       0.28 
freq.     281.41  E(vib)   ...       0.28 
freq.     285.62  E(vib)   ...       0.28 
freq.     295.44  E(vib)   ...       0.27 
freq.     299.86  E(vib)   ...       0.26 
freq.     311.47  E(vib)   ...       0.25 
freq.     321.51  E(vib)   ...       0.25 
freq.     325.53  E(vib)   ...       0.24 
freq.     368.06  E(vib)   ...       0.21 
freq.     376.21  E(vib)   ...       0.21 
freq.     382.59  E(vib)   ...       0.21 
freq.     386.44  E(vib)   ...       0.20 
freq.     436.11  E(vib)   ...       0.17 
freq.     438.47  E(vib)   ...       0.17 
freq.     461.43  E(vib)   ...       0.16 
freq.     465.17  E(vib)   ...       0.16 
freq.     610.48  E(vib)   ...       0.10 
freq.     611.02  E(vib)   ...       0.10 
freq.     620.74  E(vib)   ...       0.09 
freq.     624.65  E(vib)   ...       0.09 
freq.     667.06  E(vib)   ...       0.08 
freq.     668.44  E(vib)   ...       0.08 
freq.     677.55  E(vib)   ...       0.08 
freq.     679.89  E(vib)   ...       0.08 
freq.     680.09  E(vib)   ...       0.08 
freq.     683.06  E(vib)   ...       0.08 
freq.     704.30  E(vib)   ...       0.07 
freq.     705.12  E(vib)   ...       0.07 
freq.     705.51  E(vib)   ...       0.07 
freq.     707.69  E(vib)   ...       0.07 
freq.     727.79  E(vib)   ...       0.06 
freq.     729.09  E(vib)   ...       0.06 
freq.     755.15  E(vib)   ...       0.06 
freq.     756.08  E(vib)   ...       0.06 
freq.     761.57  E(vib)   ...       0.06 
freq.     763.10  E(vib)   ...       0.06 
freq.     825.96  E(vib)   ...       0.04 
freq.     826.80  E(vib)   ...       0.04 
freq.     877.62  E(vib)   ...       0.04 
freq.     879.05  E(vib)   ...       0.04 
freq.     986.96  E(vib)   ...       0.02 
freq.     987.30  E(vib)   ...       0.02 
freq.     992.28  E(vib)   ...       0.02 
freq.     992.31  E(vib)   ...       0.02 
freq.     993.00  E(vib)   ...       0.02 
freq.     993.80  E(vib)   ...       0.02 
freq.     996.02  E(vib)   ...       0.02 
freq.     996.06  E(vib)   ...       0.02 
freq.    1003.73  E(vib)   ...       0.02 
freq.    1004.00  E(vib)   ...       0.02 
freq.    1007.55  E(vib)   ...       0.02 
freq.    1007.89  E(vib)   ...       0.02 
freq.    1020.68  E(vib)   ...       0.02 
freq.    1020.79  E(vib)   ...       0.02 
freq.    1033.31  E(vib)   ...       0.02 
freq.    1033.94  E(vib)   ...       0.02 
freq.    1037.17  E(vib)   ...       0.02 
freq.    1037.86  E(vib)   ...       0.02 
freq.    1060.72  E(vib)   ...       0.02 
freq.    1061.25  E(vib)   ...       0.02 
freq.    1062.42  E(vib)   ...       0.02 
freq.    1063.72  E(vib)   ...       0.02 
freq.    1065.79  E(vib)   ...       0.02 
freq.    1067.58  E(vib)   ...       0.02 
freq.    1071.14  E(vib)   ...       0.02 
freq.    1072.06  E(vib)   ...       0.02 
freq.    1099.53  E(vib)   ...       0.02 
freq.    1100.74  E(vib)   ...       0.02 
freq.    1145.93  E(vib)   ...       0.01 
freq.    1148.16  E(vib)   ...       0.01 
freq.    1260.93  E(vib)   ...       0.01 
freq.    1262.85  E(vib)   ...       0.01 
freq.    1266.14  E(vib)   ...       0.01 
freq.    1266.39  E(vib)   ...       0.01 
freq.    1268.03  E(vib)   ...       0.01 
freq.    1268.08  E(vib)   ...       0.01 
freq.    1271.42  E(vib)   ...       0.01 
freq.    1272.44  E(vib)   ...       0.01 
freq.    1276.88  E(vib)   ...       0.01 
freq.    1278.11  E(vib)   ...       0.01 
freq.    1281.51  E(vib)   ...       0.01 
freq.    1281.80  E(vib)   ...       0.01 
freq.    1284.07  E(vib)   ...       0.01 
freq.    1284.72  E(vib)   ...       0.01 
freq.    1293.54  E(vib)   ...       0.01 
freq.    1294.46  E(vib)   ...       0.01 
freq.    1295.03  E(vib)   ...       0.01 
freq.    1296.09  E(vib)   ...       0.01 
freq.    1302.58  E(vib)   ...       0.01 
freq.    1303.43  E(vib)   ...       0.01 
freq.    1395.06  E(vib)   ...       0.00 
freq.    1395.17  E(vib)   ...       0.00 
freq.    1399.83  E(vib)   ...       0.00 
freq.    1399.84  E(vib)   ...       0.00 
freq.    1401.85  E(vib)   ...       0.00 
freq.    1401.92  E(vib)   ...       0.00 
freq.    1404.89  E(vib)   ...       0.00 
freq.    1405.03  E(vib)   ...       0.00 
freq.    1432.79  E(vib)   ...       0.00 
freq.    1434.13  E(vib)   ...       0.00 
freq.    1443.55  E(vib)   ...       0.00 
freq.    1444.28  E(vib)   ...       0.00 
freq.    1446.93  E(vib)   ...       0.00 
freq.    1447.99  E(vib)   ...       0.00 
freq.    1451.35  E(vib)   ...       0.00 
freq.    1452.33  E(vib)   ...       0.00 
freq.    1457.78  E(vib)   ...       0.00 
freq.    1459.90  E(vib)   ...       0.00 
freq.    1460.81  E(vib)   ...       0.00 
freq.    1462.22  E(vib)   ...       0.00 
freq.    1487.75  E(vib)   ...       0.00 
freq.    1487.84  E(vib)   ...       0.00 
freq.    1489.00  E(vib)   ...       0.00 
freq.    1489.09  E(vib)   ...       0.00 
freq.    1491.58  E(vib)   ...       0.00 
freq.    1491.71  E(vib)   ...       0.00 
freq.    1492.52  E(vib)   ...       0.00 
freq.    1492.63  E(vib)   ...       0.00 
freq.    1495.06  E(vib)   ...       0.00 
freq.    1495.20  E(vib)   ...       0.00 
freq.    1496.96  E(vib)   ...       0.00 
freq.    1497.06  E(vib)   ...       0.00 
freq.    1497.57  E(vib)   ...       0.00 
freq.    1497.61  E(vib)   ...       0.00 
freq.    1501.55  E(vib)   ...       0.00 
freq.    1501.60  E(vib)   ...       0.00 
freq.    3046.65  E(vib)   ...       0.00 
freq.    3046.67  E(vib)   ...       0.00 
freq.    3049.19  E(vib)   ...       0.00 
freq.    3049.19  E(vib)   ...       0.00 
freq.    3049.56  E(vib)   ...       0.00 
freq.    3049.64  E(vib)   ...       0.00 
freq.    3050.26  E(vib)   ...       0.00 
freq.    3050.32  E(vib)   ...       0.00 
freq.    3050.86  E(vib)   ...       0.00 
freq.    3050.88  E(vib)   ...       0.00 
freq.    3053.93  E(vib)   ...       0.00 
freq.    3054.04  E(vib)   ...       0.00 
freq.    3054.26  E(vib)   ...       0.00 
freq.    3054.32  E(vib)   ...       0.00 
freq.    3062.51  E(vib)   ...       0.00 
freq.    3062.61  E(vib)   ...       0.00 
freq.    3063.96  E(vib)   ...       0.00 
freq.    3063.99  E(vib)   ...       0.00 
freq.    3080.21  E(vib)   ...       0.00 
freq.    3080.25  E(vib)   ...       0.00 
freq.    3100.08  E(vib)   ...       0.00 
freq.    3100.16  E(vib)   ...       0.00 
freq.    3103.54  E(vib)   ...       0.00 
freq.    3103.58  E(vib)   ...       0.00 
freq.    3105.66  E(vib)   ...       0.00 
freq.    3105.68  E(vib)   ...       0.00 
freq.    3109.83  E(vib)   ...       0.00 
freq.    3109.92  E(vib)   ...       0.00 
freq.    3112.12  E(vib)   ...       0.00 
freq.    3112.14  E(vib)   ...       0.00 
freq.    3114.75  E(vib)   ...       0.00 
freq.    3114.92  E(vib)   ...       0.00 
freq.    3116.02  E(vib)   ...       0.00 
freq.    3116.05  E(vib)   ...       0.00 
freq.    3116.53  E(vib)   ...       0.00 
freq.    3116.56  E(vib)   ...       0.00 
freq.    3117.12  E(vib)   ...       0.00 
freq.    3117.19  E(vib)   ...       0.00 
freq.    3121.01  E(vib)   ...       0.00 
freq.    3121.03  E(vib)   ...       0.00 
freq.    3132.51  E(vib)   ...       0.00 
freq.    3132.55  E(vib)   ...       0.00 
freq.    3136.23  E(vib)   ...       0.00 
freq.    3136.27  E(vib)   ...       0.00 
freq.    3142.93  E(vib)   ...       0.00 
freq.    3142.94  E(vib)   ...       0.00 
freq.    3148.87  E(vib)   ...       0.00 
freq.    3148.89  E(vib)   ...       0.00 

------------
INNER ENERGY
------------

The inner energy is: U= E(el) + E(ZPE) + E(vib) + E(rot) + E(trans)
    E(el)   - is the total energy from the electronic structure calculation
              = E(kin-el) + E(nuc-el) + E(el-el) + E(nuc-nuc)
    E(ZPE)  - the the zero temperature vibrational energy from the frequency calculation
    E(vib)  - the the finite temperature correction to E(ZPE) due to population
              of excited vibrational states
    E(rot)  - is the rotational thermal energy
    E(trans)- is the translational thermal energy

Summary of contributions to the inner energy U:
Electronic energy                ...  -3795.21845548 Eh
Zero point energy                ...      0.65417189 Eh     410.50 kcal/mol
Thermal vibrational correction   ...      0.03969525 Eh      24.91 kcal/mol
Thermal rotational correction    ...      0.00141627 Eh       0.89 kcal/mol
Thermal translational correction ...      0.00141627 Eh       0.89 kcal/mol
-----------------------------------------------------------------------
Total thermal energy                  -3794.52175580 Eh


Summary of corrections to the electronic energy:
(perhaps to be used in another calculation)
Total thermal correction                  0.04252780 Eh      26.69 kcal/mol
Non-thermal (ZPE) correction              0.65417189 Eh     410.50 kcal/mol
-----------------------------------------------------------------------
Total correction                          0.69669968 Eh     437.18 kcal/mol


--------
ENTHALPY
--------

The enthalpy is H = U + kB*T
                kB is Boltzmann's constant
Total thermal energy              ...  -3794.52175580 Eh 
Thermal Enthalpy correction       ...      0.00094421 Eh       0.59 kcal/mol
-----------------------------------------------------------------------
Total Enthalpy                    ...  -3794.52081159 Eh


Note: Only C1 symmetry has been detected, increase convergence thresholds 
      if your molecule has a higher symmetry. Symmetry factor of 1.0 is   
      used for the rotational entropy correction. 
 

Note: Rotational entropy computed according to Herzberg 
Infrared and Raman Spectra, Chapter V,1, Van Nostrand Reinhold, 1945 
Point Group:  C1, Symmetry Number:   1  
Rotational constants in cm-1:     0.003314     0.003149     0.003103 

Vibrational entropy computed according to the QRRHO of S. Grimme
Chem.Eur.J. 2012 18 9955 using a reference frequency of 100.0 cm-1


-------
ENTROPY
-------

The entropy contributions are T*S = T*(S(el)+S(vib)+S(rot)+S(trans))
     S(el)   - electronic entropy
     S(vib)  - vibrational entropy
     S(rot)  - rotational entropy
     S(trans)- translational entropy
The entropies will be listed as multiplied by the temperature to get
units of energy

Electronic entropy                ...      0.00103729 Eh      0.65 kcal/mol
Vibrational entropy               ...      0.07258016 Eh     45.54 kcal/mol
Rotational entropy                ...      0.01765239 Eh     11.08 kcal/mol
Translational entropy             ...      0.02166373 Eh     13.59 kcal/mol
-----------------------------------------------------------------------
Final entropy term                ...      0.11293357 Eh     70.87 kcal/mol

In case the symmetry of your molecule has not been determined correctly
or in case you have a reason to use a different symmetry number we print 
out the resulting rotational entropy values for sn=1,12:

 non-linear molecules -----------------------------------
|  sn= 1 | S(rot)=       0.01765239 Eh     11.08 kcal/mol|
|  sn= 2 | S(rot)=       0.01699794 Eh     10.67 kcal/mol|
|  sn= 3 | S(rot)=       0.01661511 Eh     10.43 kcal/mol|
|  sn= 4 | S(rot)=       0.01634348 Eh     10.26 kcal/mol|
|  sn= 5 | S(rot)=       0.01613279 Eh     10.12 kcal/mol|
|  sn= 6 | S(rot)=       0.01596065 Eh     10.02 kcal/mol|
|  sn= 7 | S(rot)=       0.01581510 Eh      9.92 kcal/mol|
|  sn= 8 | S(rot)=       0.01568903 Eh      9.84 kcal/mol|
|  sn= 9 | S(rot)=       0.01557782 Eh      9.78 kcal/mol|
|  sn=10 | S(rot)=       0.01547834 Eh      9.71 kcal/mol|
|  sn=11 | S(rot)=       0.01538835 Eh      9.66 kcal/mol|
|  sn=12 | S(rot)=       0.01530619 Eh      9.60 kcal/mol|
 linear molecules ---------------------------------------
|  Dinfh | S(rot)=       0.01077893 Eh      6.76 kcal/mol|
|  Cinfv | S(rot)=       0.01143339 Eh      7.17 kcal/mol|
 --------------------------------------------------------


-------------------
GIBBS FREE ENERGY
-------------------

The Gibbs free energy is G = H - T*S

Total enthalpy                    ...  -3794.52081159 Eh 
Total entropy correction          ...     -0.11293357 Eh    -70.87 kcal/mol
-----------------------------------------------------------------------
Final Gibbs free energy         ...  -3794.63374516 Eh

For completeness - the Gibbs free energy minus the electronic energy
G-E(el)                           ...      0.58471032 Eh    366.91 kcal/mol


Maximum memory used throughout the entire PROP-calculation: 2480.6 MB

--------------------------------
SUGGESTED CITATIONS FOR THIS RUN
--------------------------------

Below you find a list of papers that are relevant to this ORCA run
We neither can nor want to force you to cite these papers, but we appreciate if you do
You receive ORCA, which is the product of decades of hard work by many enthusiastic individuals, for free
The only thing we kindly ask in return is that you cite our papers,
We deeply appreciate it, if you show your appreciation for ORCA by not just citing the generic ORCA reference.

Please note that relegating all ORCA citations to the supporting information does *not* help us.
SI sections are not indexed - citations you put there will not count into any citation statistics
But we need these citations in order to attract the funding resources that allow us to do what we are doing

Therefore, if you are a happy ORCA user, please consider citing a few of the papers listed below in the main body of your paper

In addition to the list printed below, the program has created the file VAZWAU-S5.bibtex that contains the list in bibtex format
You can import this file easily into all common literature databanks and citation aid programs


List of essential papers. We consider these as the minimum necessary citations

  1. Neese,F.
     Software update: the ORCA program system, version 5.0
     WIRES Comput. Molec. Sci., 2022 12(1)e1606
     doi.org/10.1002/wcms.1606

List of papers to cite with high priority. The work reported in these papers was absolutely
necessary for this run to complete.
Our perspective: the developers of density functionals and basis sets usually get cited in chemistry papers
Good! But without the algorithms to do something with them, the functionals or basis sets would not do anything.
Hence, in our opinion, the algorithm design and method developments papers are equally worthy of getting cited

  1. Neese,F.
     An improvement of the resolution of the identity approximation for the formation of the Coulomb matrix
     J. Comp. Chem., 2003 24(14)1740-1747
     doi.org/10.1002/jcc.10318
  2. Neese,F.; Wennmohs,F.; Hansen,A.; Becker,U.
     Efficient, approximate and parallel Hartree-Fock and hybrid DFT calculations. A 'chain-of-spheres' algorithm for the Hartree-Fock exchange
     Chem. Phys., 2009 356(1-3)98-109
     doi.org/10.1016/j.chemphys.2008.10.036
  3. Bykov,D.; Petrenko,T.; Izsak,R.; Kossmann,S.; Becker,U.; Valeev,E.; Neese,F.
     Efficient implementation of the analytic second derivatives of Hartree-Fock and hybrid DFT energies: a detailed analysis of different approximations
     Molec. Phys., 2015 113 1961-1977
     doi.org/10.1080/00268976.2015.1025114
  4. Helmich-Paris,B.; de Souza,B.; Neese,F.; Izsák,R.
     An improved chain of spheres for exchange algorithm
     J. Chem. Phys., 2021 155 104109
     doi.org/doi: 10.1063/5.0058766.
  5. Neese,F.
     The SHARK Integral Generation and Digestion System
     J. Comp. Chem., 2022  1-16
     doi.org/10.1002/jcc.26942

List of suggested additional citations. These are papers that are important in the 'surrounding' of 
of this run, or papers that preceded the highly important papers. If you like your results we are grateful for a citation.

  1. Izsak,R.; Neese,F.
     An overlap fitted chain of spheres exchange method
     J. Chem. Phys., 2011 135 144105
     doi.org/10.1063/1.3646921
  2. Izsak,R.; Hansen,A.; Neese,F.
     The resolution of identity and chain of spheres approximations for the LPNO-CCSD singles Fock term
     Molec. Phys., 2012 110 2413-2417
     doi.org/10.1080/00268976.2012.687466
  3. Neese,F.
     The ORCA program system
     WIRES Comput. Molec. Sci., 2012 2(1)73-78
     doi.org/10.1002/wcms.81
  4. Izsak,R.; Neese,F.; Klopper,W.
     Robust fitting techniques in the chain of spheres approximation to the Fock exchange: The role of the complementary space
     J. Chem. Phys., 2013 139 
     doi.org/10.1063/1.4819264
  5. Neese,F.
     Software update: the ORCA program system, version 4.0
     WIRES Comput. Molec. Sci., 2018 8(1)1-6
     doi.org/10.1002/wcms.1327
  6. Neese,F.; Wennmohs,F.; Becker,U.; Riplinger,C.
     The ORCA quantum chemistry program package
     J. Chem. Phys., 2020 152 Art. No. L224108
     doi.org/10.1063/5.0004608

List of optional additional citations

  1. Neese,F.
     Approximate second-order SCF convergence for spin unrestricted wavefunctions
     Chem. Phys. Lett., 2000 325(1-3)93-98
     doi.org/10.1016/s0009-2614(00)00662-x

Timings for individual modules:

Sum of individual times          ...    44555.761 sec (= 742.596 min)
Startup calculation              ...      395.467 sec (=   6.591 min)   0.9 %
SCF iterations                   ...     8040.117 sec (= 134.002 min)  18.0 %
Property integrals               ...     9861.983 sec (= 164.366 min)  22.1 %
SCF Response                     ...    19748.094 sec (= 329.135 min)  44.3 %
Property calculations            ...     3677.408 sec (=  61.290 min)   8.3 %
SCF Gradient evaluation          ...     2831.344 sec (=  47.189 min)   6.4 %
Geometry relaxation              ...        1.348 sec (=   0.022 min)   0.0 %
                             ****ORCA TERMINATED NORMALLY****
TOTAL RUN TIME: 0 days 12 hours 23 minutes 7 seconds 860 msec
