
                                 *****************
                                 * O   R   C   A *
                                 *****************

                                            #,                                       
                                            ###                                      
                                            ####                                     
                                            #####                                    
                                            ######                                   
                                           ########,                                 
                                     ,,################,,,,,                         
                               ,,#################################,,                 
                          ,,##########################################,,             
                       ,#########################################, ''#####,          
                    ,#############################################,,   '####,        
                  ,##################################################,,,,####,       
                ,###########''''           ''''###############################       
              ,#####''   ,,,,##########,,,,          '''####'''          '####       
            ,##' ,,,,###########################,,,                        '##       
           ' ,,###''''                  '''############,,,                           
         ,,##''                                '''############,,,,        ,,,,,,###''
      ,#''                                            '''#######################'''  
     '                                                          ''''####''''         
             ,#######,   #######,   ,#######,      ##                                
            ,#'     '#,  ##    ##  ,#'     '#,    #''#        ,####,   ,####,        
            ##       ##  ##   ,#'  ##            #'  '#       #'       #'  '#        
            ##       ##  #######   ##           ,######,      #####,   #    #        
            '#,     ,#'  ##    ##  '#,     ,#' ,#      #,     #,   #   #,  ,#        
             '#######'   ##     ##  '#######'  #'      '#     '####' # '####'        



                #########################################################
                #                        -***-                          #
                #          Department of theory and spectroscopy        #
                #                                                       #
                #                      Frank Neese                      #
                #                                                       #
                #     Directorship, Architecture, Infrastructure        #
                #                    SHARK, DRIVERS                     #
                #        Core code/Algorithms in most modules           #
                #                                                       #
                #        Max Planck Institute fuer Kohlenforschung      #
                #                Kaiser Wilhelm Platz 1                 #
                #                 D-45470 Muelheim/Ruhr                 #
                #                      Germany                          #
                #                                                       #
                #                  All rights reserved                  #
                #                        -***-                          #
                #########################################################


                         Program Version 6.0.1  -  RELEASE   -


 With contributions from (in alphabetic order):
[Max-Planck-Institut fuer Kohlenforschung]                               
  Daniel Aravena         : Magnetic Suceptibility                        
  Michael Atanasov       : Ab Initio Ligand Field Theory (pilot matlab implementation)
  Alexander A. Auer      : GIAO ZORA, VPT2 properties, NMR spectrum      
  Ute Becker             : All parallelization in ORCA, NUMFREQ, NUMCALC 
  Giovanni Bistoni       : ED, misc. LED, open-shell LED, HFLD           
  Martin Brehm           : Molecular dynamics                            
  Dmytro Bykov           : pre 5.0 version of the SCF Hessian            
  Marcos Casanova-Páez   : Triplet and SCS-CIS(D). UHF-(DLPNO)-IP/EA/STEOM-CCSD. UHF-CVS-IP/STEOM-CCSD   
  Vijay G. Chilkuri      : MRCI spin determinant printing, contributions to CSF-ICE 
  Pauline Colinet        : FMM embedding                                 
  Dipayan Datta          : RHF DLPNO-CCSD density                        
  Achintya Kumar Dutta   : EOM-CC, STEOM-CC                              
  Nicolas Foglia         : Exact transition moments, OPA infrastructure, MCD improvements    
  Dmitry Ganyushin       : Spin-Orbit,Spin-Spin,Magnetic field MRCI      
  Miquel Garcia-Rates    : C-PCM and meta-GGA Hessian, CCSD/C-PCM, Gaussian charge scheme 
  Tiago L. C. Gouveia    : GS-ROHF, GS-ROCIS                             
  Yang Guo               : DLPNO-NEVPT2, F12-NEVPT2, CIM, IAO-localization        
  Andreas Hansen         : Spin unrestricted coupled pair/coupled cluster methods 
  Ingolf Harden          : AUTO-CI MPn and infrastructure                
  Benjamin Helmich-Paris : MC-RPA, TRAH-(SCF,CASSCF), AVAS, COSX integrals, SCF dyn. polar. 
  Lee Huntington         : MR-EOM, pCC                                   
  Robert Izsak           : Overlap fitted RIJCOSX, COSX-SCS-MP3, EOM     
  Riya Kayal             : Wick's Theorem for AUTO-CI, AUTO-CI UHF-CCSDT 
  Emily Kempfer          : AUTO-CI, RHF CISDT and CCSDT                  
  Christian Kollmar      : KDIIS, OOCD, Brueckner-CCSD(T), CCSD density, CASPT2, CASPT2-K, improved NEVPT2 
  Axel Koslowski         : Symmetry handling                             
  Simone Kossmann        : meta-GGA functionals, TD-DFT gradient, OOMP2, (MP2 Hessian; deprecated post 5.0) 
  Lucas Lang             : DCDCAS                                        
  Marvin Lechner         : AUTO-CI (C++ implementation), FIC-MRCC        
  Spencer Leger          : CASSCF response                               
  Dagmar Lenk            : GEPOL surface, SMD, ORCA-2-JSON               
  Dimitrios Liakos       : Extrapolation schemes; Compound Job, initial MDCI parallelization 
  Dimitrios Manganas     : Further ROCIS development; embedding schemes. LFT, Crystal Embedding 
  Dimitrios Pantazis     : SARC Basis sets                               
  Anastasios Papadopoulos: AUTO-CI, single reference methods and gradients 
  Taras Petrenko         : pre 6.0 DFT Hessian and TD-DFT gradient, (ASA, deprecated), ECA, 1-Electron XAS/XES, NRVS 
  Peter Pinski           : DLPNO-MP2, DLPNO-MP2 Gradient                 
  Christoph Reimann      : Effective Core Potentials                     
  Marius Retegan         : Local ZFS, SOC                                
  Christoph Riplinger    : Optimizer, TS searches, QM/MM, DLPNO-CCSD(T), (RO)-DLPNO pert. Triples 
  Michael Roemelt        : Original ROCIS implementation                 
  Masaaki Saitow         : Open-shell DLPNO-CCSD energy and density      
  Barbara Sandhoefer     : DKH picture change effects                    
  Kantharuban Sivalingam : CASSCF convergence/infrastructure, NEVPT2 and variants, FIC-MRCI 
  Bernardo de Souza      : ESD, SOC TD-DFT                               
  Georgi L. Stoychev     : AutoAux, RI-MP2 NMR, DLPNO-MP2 response, X2C  
  Van Anh Tran           : RI-MP2 g-tensors                              
  Willem Van den Heuvel  : Paramagnetic NMR                              
  Zikuan Wang            : NOTCH, Electric field optimization            
  Frank Wennmohs         : Technical directorship and infrastructure     
  Hang Xu                : AUTO-CI-Response properties                   
                                                                         
[FACCTs GmbH]                                                            
  Markus Bursch, Miquel Garcia-Rates, Christoph Riplinger, Bernardo de Souza, Georgi L. Stoychev 
                                                                 
  APM, Basis sets (HGBS, AHGBS, def-TZVP (Ac-Lr), def2-XVPD (La-Lu)), CI-OPT, improved COSX, DLPNO-Multilevel,           
  DOCKER, DRACO, updates on ESD, GOAT, IRC, LR-CPCM, MBIS, meta-GGA TD-DFT gradient, ML-optimized integration grids, 
  MM, NACMEs, nearIR, NEB, NEB-TS, NL-DFT gradient (VV10), 2- and 3-layer-ONIOM, interface openCOSMO-RS, QMMM,   
  Crystal-QMMM, SF, symmetry and pop. for TD-DFT, r2SCAN hybrids, SOLVATOR                                   
                                                                         
[Other institutions]                                                     
  V. Asgeirsson          : NEB                                           
  Christoph Bannwarth    : sTDA-DFT, sTD-DFT, PBEh-3c, B97-3c, D3        
  Sebastian Ehlert       : rSCAN, r2SCAN, r2SCAN-3c, D4, dhf basis sets  
  Marvin Friede          : D4 for Fr, Ra, Ac-Lr                          
  Lars Goerigk           : TD-DFT with DH, B97 family of functionals     
  Stefan Grimme          : VdW corrections, initial TS optimization, DFT functionals, gCP, sTDA/sTD-DF 
  Waldemar Hujo          : DFT-NL                                        
  H. Jonsson             : NEB                                           
  Holger Kruse           : gCP                                           
  Marcel Mueller         : wB97X-3c, vDZP basis set                      
  Hagen Neugebauer       : wr2SCAN                                       
  Tobias Risthaus        : range-separated hybrid DFT                    
  Lukas Wittmann         : regularized MP2, r2SCAN double-hybrids, wr2SCAN        
                                                                         
We gratefully acknowledge several colleagues who have allowed us to      
interface, adapt or use parts of their codes:                            
  Ed Valeev, F. Pavosevic, A. Kumar             : LibInt (2-el integral package), F12 methods 
  Garnet Chan, S. Sharma, J. Yang, R. Olivares  : DMRG                   
  Ulf Ekstrom                                   : XCFun DFT Library      
  Mihaly Kallay                                 : mrcc  (arbitrary order and MRCC methods)
  Frank Weinhold                                : gennbo (NPA and NBO analysis)           
  Simon Mueller                                 : openCOSMO-RS                            
  Christopher J. Cramer and Donald G. Truhlar   : smd solvation model                     
  S Lehtola, MJT Oliveira, MAL Marques          : LibXC Library                           
  Liviu Ungur et al                             : ANISO software                          


 Your calculation uses the libint2 library for the computation of 2-el integrals
 For citations please refer to: http://libint.valeyev.net

 Your ORCA version has been built with support for libXC version: 6.2.2
 For citations please refer to: https://libxc.gitlab.io

 This ORCA versions uses:
   CBLAS   interface :  Fast vector & matrix operations
   LAPACKE interface :  Fast linear algebra routines
   SCALAPACK package :  Parallel linear algebra routines
   Shared memory     :  Shared parallel matrices
   BLAS/LAPACK       :  OpenBLAS 0.3.27  USE64BITINT DYNAMIC_ARCH NO_AFFINITY Cooperlake SINGLE_THREADED
        Core in use  :  Cooperlake
   Copyright (c) 2011-2014, The OpenBLAS Project


NOTE: MaxCore=3600 MB was set to SCF,MP2,MDCI,CIPSI,MRCI and CIS
      => If you want to overwrite this, your respective input block should be placed after the MaxCore statement
Warning: RI is on but no J-basis has been assigned. Assigning Def2/J (nothing to worry about!)
================================================================================

----- Orbital basis set information -----
Your calculation utilizes the basis: def2-TZVP
   F. Weigend and R. Ahlrichs, Phys. Chem. Chem. Phys. 7, 3297 (2005).

----- AuxJ basis set information -----
Your calculation utilizes the auxiliary basis: def2/J
   F. Weigend, Phys. Chem. Chem. Phys. 8, 1057 (2006).

================================================================================
                                        WARNINGS
                       Please study these warnings very carefully!
================================================================================


WARNING: your system is open-shell and RHF/RKS was chosen
  ===> : WILL SWITCH to UHF/UKS


WARNING: Geometry Optimization
  ===> : Switching off AutoStart
         For restart on a previous wavefunction, please use MOREAD

================================================================================
                                       INPUT FILE
================================================================================
NAME = WULCEO-S5.inp
|  1> ! PBE0 def2-TZVP  Opt Freq DEFGRID3
|  2> 
|  3> %maxcore 3600
|  4> 
|  5> %pal
|  6>     nprocs 16
|  7> end
|  8> 
|  9> *xyz -3 3
| 10> Cr 4.8842 10.2823 3.3583
| 11> F 8.3688 9.0122 6.1024
| 12> O 4.2323 11.0023 5.0584
| 13> O 3.6065 8.8134 3.5807
| 14> F 6.6487 7.984 6.8699
| 15> O 6.2122 9.3305 4.4136
| 16> O 5.5315 9.4239 1.6391
| 17> O 6.151 11.7631 3.2103
| 18> F 5.1051 11.8435 7.6675
| 19> O 3.4904 11.2472 2.2464
| 20> F 4.7301 9.8499 8.4115
| 21> F 3.1315 10.9976 7.5566
| 22> F 7.3159 9.8215 7.7869
| 23> F 2.8454 6.2862 5.8849
| 24> F 8.39 13.6502 5.1869
| 25> F 2.6637 6.3631 3.7597
| 26> F 6.8648 14.372 3.9111
| 27> F 8.4793 13.2527 3.0958
| 28> C 6.846 12.0494 4.2945
| 29> C 3.2937 11.136 1.012
| 30> F 1.3058 7.4658 5.0026
| 31> C 2.5956 7.118 4.8546
| 32> C 6.9318 11.362 5.4537
| 33> H 7.414 11.729 6.1593
| 34> C 3.4915 8.3189 4.8019
| 35> C 6.2714 10.0132 5.6428
| 36> C 7.1358 9.1944 6.6079
| 37> C 4.7253 10.1114 6.0342
| 38> C 4.0065 8.785 5.9525
| 39> H 3.9185 8.273 6.7241
| 40> C 5.0495 9.5695 0.4849
| 41> C 7.6423 13.3178 4.1298
| 42> C 4.4457 10.7112 7.4202
| 43> C 4.018 10.406 0.0844
| 44> H 3.8094 10.4765 -0.8191
| 45> C 5.6615 8.6478 -0.5659
| 46> F 6.6862 7.9852 -0.2528
| 47> F 5.4149 8.9152 -1.7683
| 48> F 2.0079 12.1026 -0.7191
| 49> F 1.4508 12.6422 1.3367
| 50> F 1.0262 10.7905 0.3472
| 51> C 2.0443 11.8648 0.5059
| 52> F 4.6799 7.4741 -0.6274
| 53> *
| 54> 
| 55>                          ****END OF INPUT****
================================================================================

                       *****************************
                       * Geometry Optimization Run *
                       *****************************

Geometry optimization settings:
Update method            Update   .... BFGS
Choice of coordinates    CoordSys .... (2022) Redundant Internals
Initial Hessian          InHess   .... Almloef's Model
Max. no of cycles        MaxIter  .... 129

Convergence Tolerances:
Energy Change            TolE     ....  5.0000e-06 Eh
Max. Gradient            TolMAXG  ....  3.0000e-04 Eh/bohr
RMS Gradient             TolRMSG  ....  1.0000e-04 Eh/bohr
Max. Displacement        TolMAXD  ....  4.0000e-03 bohr
RMS Displacement         TolRMSD  ....  2.0000e-03 bohr
Strict Convergence                .... False

------------------------------------------------------------------------------
                        ORCA OPTIMIZATION COORDINATE SETUP
------------------------------------------------------------------------------

The optimization will be done in redundant internal coordinates (2022)
Making redundant internal coordinates   ...  (2022 redundants) done
Evaluating the initial hessian          ...  (Almloef) done
Evaluating the coordinates              ...  done
Calculating the B-matrix                .... done
Calculating the G-matrix                .... done
Diagonalizing the G-matrix              .... done
Small eigenvalue found = 2.139e-02
Small eigenvalue found = 2.368e-02
Small eigenvalue found = 2.772e-02
The first mode is                       ....  243
The number of degrees of freedom        ....  123

    -----------------------------------------------------------------
                    Redundant Internal Coordinates


    -----------------------------------------------------------------
         Definition                    Initial Value    Approx d2E/dq
    -----------------------------------------------------------------
      1. B(O   2,Cr  0)                  1.9580         0.702770   
      2. B(O   3,Cr  0)                  1.9595         0.698871   
      3. B(O   5,Cr  0)                  1.9450         0.737014   
      4. B(O   6,Cr  0)                  2.0277         0.544025   
      5. B(O   7,Cr  0)                  1.9543         0.712242   
      6. B(O   9,Cr  0)                  2.0273         0.544747   
      7. B(C  18,Cr  0)                  2.8014         0.035407   
      8. B(C  18,O   7)                  1.3193         0.725630   
      9. B(C  19,O   9)                  1.2549         0.919184   
     10. B(C  21,F  15)                  1.3317         0.644236   
     11. B(C  21,F  20)                  1.3440         0.615584   
     12. B(C  21,F  13)                  1.3475         0.607773   
     13. B(C  22,C  18)                  1.3504         0.722589   
     14. B(H  23,C  22)                  0.9301         0.647949   
     15. B(C  24,Cr  0)                  2.8069         0.034700   
     16. B(C  24,C  21)                  1.4992         0.418341   
     17. B(C  24,O   3)                  1.3225         0.717002   
     18. B(C  25,C  22)                  1.5137         0.396695   
     19. B(C  25,O   5)                  1.4073         0.525123   
     20. B(C  25,Cr  0)                  2.6862         0.054058   
     21. B(C  26,C  25)                  1.5327         0.369945   
     22. B(C  26,F  12)                  1.3475         0.607837   
     23. B(C  26,F   4)                  1.3308         0.646318   
     24. B(C  26,F   1)                  1.3450         0.613432   
     25. B(C  27,C  25)                  1.5979         0.291111   
     26. B(C  27,O   2)                  1.4103         0.519389   
     27. B(C  27,Cr  0)                  2.6861         0.054086   
     28. B(C  28,C  27)                  1.5109         0.400794   
     29. B(C  28,C  24)                  1.3440         0.739806   
     30. B(H  29,C  28)                  0.9302         0.647722   
     31. B(C  30,O   6)                  1.2592         0.904659   
     32. B(C  31,C  18)                  1.5067         0.407002   
     33. B(C  31,F  17)                  1.3319         0.643663   
     34. B(C  31,F  16)                  1.3280         0.652875   
     35. B(C  31,F  14)                  1.3368         0.632210   
     36. B(C  32,C  27)                  1.5359         0.365590   
     37. B(C  32,F  11)                  1.3519         0.597975   
     38. B(C  32,F  10)                  1.3437         0.616473   
     39. B(C  32,F   8)                  1.3334         0.640030   
     40. B(C  33,C  30)                  1.3871         0.631423   
     41. B(C  33,C  19)                  1.3849         0.636609   
     42. B(H  34,C  33)                  0.9299         0.648309   
     43. B(C  35,C  30)                  1.5259         0.379297   
     44. B(F  36,C  35)                  1.2598         0.838885   
     45. B(F  37,C  35)                  1.2562         0.849982   
     46. B(C  41,F  40)                  1.4886         0.362000   
     47. B(C  41,F  39)                  1.2833         0.769525   
     48. B(C  41,F  38)                  1.2484         0.874748   
     49. B(C  41,C  19)                  1.5324         0.370279   
     50. B(F  42,C  35)                  1.5313         0.309403   
     51. A(O   2,Cr  0,O   7)           90.1687         0.571929   
     52. A(O   5,Cr  0,O   7)           88.2407         0.577158   
     53. A(O   2,Cr  0,C  27)           30.5364         0.360037   
     54. A(O   3,Cr  0,C  24)           25.0052         0.333824   
     55. A(O   7,Cr  0,C  24)          152.9455         0.334877   
     56. A(O   2,Cr  0,C  24)           69.2344         0.334133   
     57. A(O   7,Cr  0,O   9)           92.4921         0.544876   
     58. A(O   7,Cr  0,C  27)           99.3228         0.360860   
     59. A(O   5,Cr  0,C  25)           30.3406         0.362939   
     60. A(O   3,Cr  0,O   5)           90.9620         0.575068   
     61. A(O   3,Cr  0,O   6)           89.2574         0.542788   
     62. A(O   6,Cr  0,O   9)           87.4750         0.517907   
     63. A(O   9,Cr  0,C  18)          111.3783         0.321458   
     64. A(O   6,Cr  0,C  25)          120.9177         0.344746   
     65. A(O   6,Cr  0,O   7)           92.8448         0.544739   
     66. A(O   3,Cr  0,C  18)          153.0702         0.334944   
     67. A(O   5,Cr  0,C  24)           73.5863         0.336787   
     68. A(O   2,Cr  0,O   5)           86.3402         0.575681   
     69. A(O   9,Cr  0,C  27)          122.4114         0.344854   
     70. A(O   5,Cr  0,O   6)           91.9999         0.548279   
     71. A(O   7,Cr  0,C  25)           78.7885         0.360827   
     72. A(O   3,Cr  0,C  25)           99.5036         0.359664   
     73. A(O   5,Cr  0,C  27)           57.9098         0.362972   
     74. A(O   5,Cr  0,C  18)           69.4651         0.337920   
     75. A(O   9,Cr  0,C  25)          150.3612         0.344823   
     76. A(C  18,Cr  0,C  25)           54.3616         0.227609   
     77. A(O   3,Cr  0,C  27)           78.5018         0.359696   
     78. A(O   2,Cr  0,C  25)           58.0170         0.360005   
     79. A(O   6,Cr  0,C  24)          107.3575         0.320331   
     80. A(O   6,Cr  0,C  18)          109.0767         0.321389   
     81. A(O   2,Cr  0,O   3)           87.7082         0.569862   
     82. A(O   9,Cr  0,C  24)          105.8951         0.320401   
     83. A(C  18,Cr  0,C  24)          128.0851         0.214377   
     84. A(O   7,Cr  0,C  18)           24.9640         0.336001   
     85. A(O   2,Cr  0,O   9)           94.1461         0.543496   
     86. A(O   2,Cr  0,C  18)           73.2034         0.335253   
     87. A(O   6,Cr  0,C  27)          146.7837         0.344777   
     88. A(O   3,Cr  0,O   9)           88.3234         0.542924   
     89. A(C  24,Cr  0,C  27)           54.1106         0.226995   
     90. A(C  25,Cr  0,C  27)           34.6071         0.241559   
     91. A(C  18,Cr  0,C  27)           75.4416         0.227626   
     92. A(C  24,Cr  0,C  25)           75.4491         0.226978   
     93. A(Cr  0,O   2,C  27)          104.6016         0.477366   
     94. A(Cr  0,O   3,C  24)          116.2182         0.506242   
     95. A(Cr  0,O   5,C  25)          105.3805         0.482548   
     96. A(Cr  0,O   6,C  30)          127.3005         0.504546   
     97. A(Cr  0,O   7,C  18)          116.3382         0.509172   
     98. A(Cr  0,O   9,C  19)          127.2347         0.506172   
     99. A(O   7,C  18,C  22)          128.9361         0.456138   
    100. A(Cr  0,C  18,C  22)           90.5886         0.304825   
    101. A(O   7,C  18,C  31)          111.7948         0.411407   
    102. A(Cr  0,C  18,C  31)          149.8398         0.278529   
    103. A(C  22,C  18,C  31)          119.2607         0.413773   
    104. A(Cr  0,C  18,O   7)           38.6978         0.303252   
    105. A(O   9,C  19,C  41)          114.2374         0.421929   
    106. A(C  33,C  19,C  41)          117.1222         0.397910   
    107. A(O   9,C  19,C  33)          128.5780         0.465373   
    108. A(F  15,C  21,F  20)          106.6370         0.427009   
    109. A(F  13,C  21,F  20)          104.6810         0.422581   
    110. A(F  13,C  21,F  15)          105.6192         0.426033   
    111. A(F  20,C  21,C  24)          111.7192         0.399818   
    112. A(F  15,C  21,C  24)          113.2430         0.403035   
    113. A(F  13,C  21,C  24)          114.2400         0.398921   
    114. A(H  23,C  22,C  25)          118.8833         0.361460   
    115. A(C  18,C  22,H  23)          118.9009         0.401067   
    116. A(C  18,C  22,C  25)          122.2157         0.411893   
    117. A(C  21,C  24,C  28)          118.4694         0.417546   
    118. A(O   3,C  24,C  28)          128.8670         0.457102   
    119. A(Cr  0,C  24,C  28)           90.4348         0.304991   
    120. A(O   3,C  24,C  21)          112.5774         0.412541   
    121. A(Cr  0,C  24,C  21)          151.0340         0.278844   
    122. A(Cr  0,C  24,O   3)           38.7766         0.301701   
    123. A(C  22,C  25,C  26)          107.9781         0.366492   
    124. A(O   5,C  25,C  26)          108.3342         0.382245   
    125. A(Cr  0,C  25,C  26)          151.6782         0.293121   
    126. A(O   5,C  25,C  22)          109.9690         0.386916   
    127. A(Cr  0,C  25,C  22)           91.7074         0.296372   
    128. A(Cr  0,C  25,O   5)           44.2789         0.308144   
    129. A(C  26,C  25,C  27)          115.1062         0.347721   
    130. A(C  22,C  25,C  27)          113.4527         0.351841   
    131. A(O   5,C  25,C  27)          101.7158         0.366763   
    132. A(Cr  0,C  25,C  27)           72.6915         0.282344   
    133. A(F   4,C  26,C  25)          113.7938         0.394641   
    134. A(F   1,C  26,C  25)          110.6546         0.391049   
    135. A(F   4,C  26,F  12)          107.4545         0.426288   
    136. A(F   1,C  26,F  12)          105.6261         0.422324   
    137. A(F   1,C  26,F   4)          106.6383         0.426988   
    138. A(F  12,C  26,C  25)          112.1919         0.390424   
    139. A(C  25,C  27,C  32)          114.9097         0.347028   
    140. A(O   2,C  27,C  32)          108.3037         0.380734   
    141. A(Cr  0,C  27,C  32)          152.2421         0.292599   
    142. A(C  28,C  27,C  32)          107.7603         0.366394   
    143. A(C  25,C  27,C  28)          113.1499         0.352453   
    144. A(O   2,C  27,C  28)          110.5400         0.386868   
    145. A(Cr  0,C  27,C  28)           91.7266         0.296880   
    146. A(O   2,C  27,C  25)          101.9807         0.366073   
    147. A(Cr  0,C  27,C  25)           72.7014         0.282367   
    148. A(Cr  0,C  27,O   2)           44.8620         0.307627   
    149. A(C  27,C  28,H  29)          118.9063         0.362073   
    150. A(C  24,C  28,H  29)          118.8816         0.402710   
    151. A(C  24,C  28,C  27)          122.2121         0.414375   
    152. A(C  33,C  30,C  35)          117.6256         0.399023   
    153. A(O   6,C  30,C  35)          114.0696         0.422542   
    154. A(O   6,C  30,C  33)          128.2434         0.463325   
    155. A(F  17,C  31,C  18)          112.0768         0.401026   
    156. A(F  16,C  31,C  18)          112.1387         0.402031   
    157. A(F  14,C  31,C  18)          114.7400         0.399760   
    158. A(F  16,C  31,F  17)          106.1925         0.431469   
    159. A(F  14,C  31,F  17)          105.9361         0.428985   
    160. A(F  14,C  31,F  16)          105.0878         0.430080   
    161. A(F  11,C  32,C  27)          110.5325         0.388506   
    162. A(F  10,C  32,C  27)          112.1421         0.390578   
    163. A(F   8,C  32,C  27)          114.1392         0.393149   
    164. A(F  10,C  32,F  11)          105.4925         0.421464   
    165. A(F   8,C  32,F  11)          106.3859         0.424298   
    166. A(F   8,C  32,F  10)          107.6274         0.426618   
    167. A(C  30,C  33,H  34)          119.5405         0.391723   
    168. A(C  19,C  33,H  34)          119.5690         0.392284   
    169. A(C  19,C  33,C  30)          120.8905         0.437574   
    170. A(F  36,C  35,F  37)          120.6314         0.475006   
    171. A(C  30,C  35,F  37)          116.8620         0.416032   
    172. A(C  30,C  35,F  36)          118.2155         0.415061   
    173. A(F  37,C  35,F  42)           89.9356         0.396999   
    174. A(F  36,C  35,F  42)           97.3684         0.396085   
    175. A(C  30,C  35,F  42)          103.5057         0.349168   
    176. A(F  38,C  41,F  40)           90.7401         0.410222   
    177. A(C  19,C  41,F  40)          104.4544         0.357115   
    178. A(F  38,C  41,F  39)          120.4236         0.470008   
    179. A(C  19,C  41,F  39)          116.8313         0.407017   
    180. A(C  19,C  41,F  38)          116.0043         0.416377   
    181. A(F  39,C  41,F  40)          100.9472         0.401038   
    182. D(C  27,O   2,Cr  0,C  25)    -31.6511         0.004568   
    183. D(C  27,O   2,Cr  0,O   3)     71.0465         0.004568   
    184. D(C  27,O   2,Cr  0,O   7)   -108.2912         0.004568   
    185. D(C  27,O   2,Cr  0,C  18)    -89.7090         0.004568   
    186. D(C  27,O   2,Cr  0,O   9)    159.1978         0.004568   
    187. D(C  27,O   2,Cr  0,C  24)     53.7604         0.004568   
    188. D(C  27,O   2,Cr  0,O   5)    -20.0649         0.004568   
    189. D(C  24,O   3,Cr  0,O   6)    137.1917         0.004534   
    190. D(C  24,O   3,Cr  0,C  25)     15.9379         0.004534   
    191. D(C  24,O   3,Cr  0,C  18)      3.0694         0.004534   
    192. D(C  24,O   3,Cr  0,C  27)    -11.7287         0.004534   
    193. D(C  24,O   3,Cr  0,O   5)     45.2039         0.004534   
    194. D(C  24,O   3,Cr  0,O   9)   -135.3128         0.004534   
    195. D(C  24,O   3,Cr  0,O   2)    -41.0943         0.004534   
    196. D(C  25,O   5,Cr  0,O   3)   -107.3505         0.004878   
    197. D(C  25,O   5,Cr  0,O   7)     70.5727         0.004878   
    198. D(C  25,O   5,Cr  0,C  18)     53.7170         0.004878   
    199. D(C  25,O   5,Cr  0,C  24)    -89.1285         0.004878   
    200. D(C  25,O   5,Cr  0,O   2)    -19.7090         0.004878   
    201. D(C  25,O   5,Cr  0,C  27)    -31.5825         0.004878   
    202. D(C  25,O   5,Cr  0,O   6)    163.3591         0.004878   
    203. D(C  30,O   6,Cr  0,O   9)     -2.0324         0.003333   
    204. D(C  30,O   6,Cr  0,C  25)   -173.0339         0.003333   
    205. D(C  30,O   6,Cr  0,C  24)    103.8366         0.003333   
    206. D(C  30,O   6,Cr  0,C  27)    153.7580         0.003333   
    207. D(C  30,O   6,Cr  0,O   5)    177.2586         0.003333   
    208. D(C  30,O   6,Cr  0,O   7)    -94.4044         0.003333   
    209. D(C  30,O   6,O   2,C  27)    155.8580         0.001500   
    210. D(C  30,O   6,Cr  0,C  18)   -113.7993         0.003333   
    211. D(C  30,O   6,Cr  0,O   3)     86.3219         0.003333   
    212. D(C  18,O   7,Cr  0,O   2)     46.2889         0.004653   
    213. D(C  18,O   7,Cr  0,C  27)     17.0225         0.004653   
    214. D(C  18,O   7,Cr  0,O   6)   -131.9601         0.004653   
    215. D(C  18,O   7,Cr  0,O   5)    -40.0443         0.004653   
    216. D(C  18,O   7,Cr  0,C  25)    -10.9895         0.004653   
    217. D(C  18,O   7,Cr  0,O   9)    140.4464         0.004653   
    218. D(C  18,O   7,O   3,C  24)      5.1631         0.001500   
    219. D(C  18,O   7,Cr  0,C  24)      6.9797         0.004653   
    220. D(C  19,O   9,Cr  0,C  27)   -162.4084         0.003338   
    221. D(C  19,O   9,O   5,C  25)    165.8204         0.001500   
    222. D(C  19,O   9,Cr  0,C  25)    166.4159         0.003338   
    223. D(C  19,O   9,Cr  0,C  24)   -105.1740         0.003338   
    224. D(C  19,O   9,Cr  0,O   2)   -174.7500         0.003338   
    225. D(C  19,O   9,Cr  0,O   3)    -87.1705         0.003338   
    226. D(C  19,O   9,Cr  0,O   6)      2.1598         0.003338   
    227. D(C  19,O   9,Cr  0,O   7)     94.8999         0.003338   
    228. D(C  19,O   9,Cr  0,C  18)    111.6753         0.003338   
    229. D(C  31,C  18,O   7,Cr  0)   -171.9869         0.043898   
    230. D(C  22,C  18,O   7,Cr  0)      9.0943         0.043898   
    231. D(C  22,C  18,Cr  0,O   5)    -36.3078         0.001509   
    232. D(C  22,C  18,Cr  0,O   3)      9.4415         0.001509   
    233. D(C  22,C  18,Cr  0,O   2)     56.0917         0.001509   
    234. D(O   7,C  18,Cr  0,O   9)    -43.0947         0.001509   
    235. D(O   7,C  18,Cr  0,O   5)    136.6296         0.001509   
    236. D(O   7,C  18,Cr  0,O   3)   -177.6211         0.001509   
    237. D(O   7,C  18,Cr  0,O   2)   -130.9709         0.001509   
    238. D(O   7,C  18,Cr  0,O   6)     51.7995         0.001509   
    239. D(C  22,C  18,Cr  0,O   6)   -121.1379         0.001509   
    240. D(O   7,C  18,Cr  0,C  27)   -162.6347         0.001509   
    241. D(O   7,C  18,Cr  0,C  25)    166.6981         0.001509   
    242. D(O   7,C  18,Cr  0,C  24)   -175.9733         0.001509   
    243. D(C  33,C  19,O   9,Cr  0)     -4.5971         0.067515   
    244. D(C  41,C  19,O   9,Cr  0)    172.4149         0.067515   
    245. D(C  25,C  22,C  18,O   7)      5.0054         0.040237   
    246. D(C  25,C  22,C  18,Cr  0)     10.6770         0.040237   
    247. D(H  23,C  22,C  18,C  31)      6.0595         0.040237   
    248. D(H  23,C  22,C  18,O   7)   -175.0913         0.040237   
    249. D(H  23,C  22,C  18,Cr  0)   -169.4197         0.040237   
    250. D(O   3,C  24,C  21,F  20)    -86.4103         0.013849   
    251. D(O   3,C  24,C  21,F  13)    154.9999         0.013849   
    252. D(Cr  0,C  24,C  21,F  20)    -93.5690         0.013849   
    253. D(Cr  0,C  24,C  21,F  15)     26.8612         0.013849   
    254. D(Cr  0,C  24,C  21,F  13)    147.8411         0.013849   
    255. D(C  28,C  24,O   3,Cr  0)      9.0047         0.042752   
    256. D(C  21,C  24,O   3,Cr  0)   -174.4701         0.042752   
    257. D(C  21,C  24,Cr  0,O   6)    -34.8033         0.001509   
    258. D(C  21,C  24,Cr  0,O   5)   -121.7102         0.001509   
    259. D(C  21,C  24,Cr  0,O   3)     10.5872         0.001509   
    260. D(C  21,C  24,Cr  0,O   2)    145.9670         0.001509   
    261. D(O   3,C  24,Cr  0,C  27)    165.7663         0.001509   
    262. D(O   3,C  24,Cr  0,C  25)   -163.7517         0.001509   
    263. D(O   3,C  24,Cr  0,C  18)   -178.2344         0.001509   
    264. D(O   3,C  24,Cr  0,O   9)     46.9602         0.001509   
    265. D(O   3,C  24,Cr  0,O   7)    178.0296         0.001509   
    266. D(O   3,C  24,Cr  0,O   6)    -45.3905         0.001509   
    267. D(O   3,C  24,C  21,F  15)     34.0199         0.013849   
    268. D(O   3,C  24,Cr  0,O   5)   -132.2974         0.001509   
    269. D(O   3,C  24,Cr  0,O   2)    135.3798         0.001509   
    270. D(C  26,C  25,C  22,H  23)    -31.7283         0.012493   
    271. D(C  26,C  25,C  22,C  18)    148.1750         0.012493   
    272. D(O   5,C  25,C  22,H  23)   -149.7475         0.012493   
    273. D(Cr  0,C  25,C  22,H  23)    168.9517         0.012493   
    274. D(Cr  0,C  25,C  22,C  18)    -11.1450         0.012493   
    275. D(C  27,C  25,O   5,Cr  0)     49.6180         0.023752   
    276. D(C  22,C  25,O   5,Cr  0)    -70.9003         0.023752   
    277. D(C  22,C  25,Cr  0,O   7)     11.2477         0.001522   
    278. D(C  22,C  25,Cr  0,O   6)     97.8231         0.001522   
    279. D(C  22,C  25,Cr  0,O   5)    117.3106         0.001522   
    280. D(C  22,C  25,Cr  0,O   3)   -167.3041         0.001522   
    281. D(C  22,C  25,Cr  0,O   2)    -86.0667         0.001522   
    282. D(O   5,C  25,Cr  0,C  27)    128.6249         0.001522   
    283. D(C  26,C  25,O   5,Cr  0)    171.3009         0.023752   
    284. D(O   5,C  25,Cr  0,C  24)     82.2726         0.001522   
    285. D(O   5,C  25,Cr  0,C  18)   -111.7442         0.001522   
    286. D(O   5,C  25,Cr  0,O   9)    178.9320         0.001522   
    287. D(O   5,C  25,C  22,C  18)     30.1558         0.012493   
    288. D(O   5,C  25,Cr  0,O   7)   -106.0629         0.001522   
    289. D(O   5,C  25,Cr  0,O   6)    -19.4875         0.001522   
    290. D(O   5,C  25,Cr  0,O   3)     75.3853         0.001522   
    291. D(O   5,C  25,Cr  0,O   2)    156.6227         0.001522   
    292. D(F   4,C  26,C  25,C  22)    179.2219         0.011596   
    293. D(F   4,C  26,C  25,O   5)    -61.7149         0.011596   
    294. D(F   4,C  26,C  25,Cr  0)    -48.8550         0.011596   
    295. D(F   1,C  26,C  25,C  27)    171.3755         0.011596   
    296. D(F   1,C  26,C  25,C  22)    -60.7361         0.011596   
    297. D(F   1,C  26,C  25,O   5)     58.3271         0.011596   
    298. D(F   1,C  26,C  25,Cr  0)     71.1870         0.011596   
    299. D(C  25,C  27,Cr  0,O   2)   -128.4007         0.001522   
    300. D(O   2,C  27,Cr  0,C  25)    128.4007         0.001522   
    301. D(O   2,C  27,Cr  0,C  24)   -111.4267         0.001522   
    302. D(O   2,C  27,Cr  0,C  18)     81.5256         0.001522   
    303. D(O   2,C  27,Cr  0,O   9)    -24.8077         0.001522   
    304. D(O   2,C  27,Cr  0,O   7)     74.1917         0.001522   
    305. D(O   2,C  27,Cr  0,O   6)   -175.7774         0.001522   
    306. D(O   2,C  27,Cr  0,O   5)    156.1633         0.001522   
    307. D(C  25,C  27,Cr  0,O   3)    126.2609         0.001522   
    308. D(O   2,C  27,Cr  0,O   3)   -105.3384         0.001522   
    309. D(C  28,C  27,C  25,Cr  0)     84.3277         0.007886   
    310. D(O   2,C  27,C  25,C  26)    174.8699         0.007886   
    311. D(O   2,C  27,C  25,O   5)    -68.2619         0.007886   
    312. D(O   2,C  27,C  25,Cr  0)    -34.4109         0.007886   
    313. D(Cr  0,C  27,C  25,C  26)   -150.7192         0.007886   
    314. D(Cr  0,C  27,C  25,C  22)     84.1931         0.007886   
    315. D(Cr  0,C  27,C  25,O   5)    -33.8510         0.007886   
    316. D(C  32,C  27,O   2,Cr  0)    171.4793         0.023212   
    317. D(C  28,C  27,O   2,Cr  0)    -70.6781         0.023212   
    318. D(C  25,C  27,O   2,Cr  0)     49.8981         0.023212   
    319. D(O   2,C  27,C  25,C  22)     49.7823         0.007886   
    320. D(C  25,C  27,Cr  0,O   7)    -54.2090         0.001522   
    321. D(C  25,C  27,Cr  0,O   6)     55.8220         0.001522   
    322. D(C  25,C  27,Cr  0,O   5)     27.7626         0.001522   
    323. D(H  29,C  28,C  27,O   2)   -151.2907         0.012743   
    324. D(C  24,C  28,C  27,C  32)    146.9823         0.012743   
    325. D(C  24,C  28,C  27,C  25)    -84.8514         0.012743   
    326. D(C  24,C  28,C  27,O   2)     28.8072         0.012743   
    327. D(C  24,C  28,C  27,Cr  0)    -12.9497         0.012743   
    328. D(H  29,C  28,C  24,O   3)   -173.1497         0.042368   
    329. D(H  29,C  28,C  24,Cr  0)   -167.5242         0.042368   
    330. D(C  27,C  28,C  24,C  21)   -169.5975         0.042368   
    331. D(H  29,C  28,C  27,Cr  0)    166.9523         0.012743   
    332. D(C  27,C  28,C  24,O   3)      6.7524         0.042368   
    333. D(C  27,C  28,C  24,Cr  0)     12.3779         0.042368   
    334. D(C  35,C  30,O   6,Cr  0)   -172.7499         0.065108   
    335. D(C  33,C  30,O   6,Cr  0)      4.3001         0.065108   
    336. D(F  16,C  31,C  18,C  22)   -119.5414         0.013128   
    337. D(F  16,C  31,C  18,O   7)     61.4226         0.013128   
    338. D(F  16,C  31,C  18,Cr  0)     51.4331         0.013128   
    339. D(F  14,C  31,C  18,C  22)      0.2529         0.013128   
    340. D(F  14,C  31,C  18,O   7)   -178.7830         0.013128   
    341. D(F  14,C  31,C  18,Cr  0)    171.2275         0.013128   
    342. D(F  10,C  32,C  27,C  25)    -74.6608         0.011340   
    343. D(F  10,C  32,C  27,O   2)    172.0929         0.011340   
    344. D(F  10,C  32,C  27,Cr  0)   -174.9388         0.011340   
    345. D(F   8,C  32,C  27,C  28)    175.2147         0.011340   
    346. D(F   8,C  32,C  27,C  25)     48.0652         0.011340   
    347. D(F   8,C  32,C  27,O   2)    -65.1811         0.011340   
    348. D(F   8,C  32,C  27,Cr  0)    -52.2128         0.011340   
    349. D(H  34,C  33,C  30,O   6)    174.3289         0.027652   
    350. D(C  19,C  33,C  30,C  35)    171.2021         0.027652   
    351. D(C  19,C  33,C  30,O   6)     -5.7579         0.027652   
    352. D(H  34,C  33,C  19,C  41)      8.9081         0.028138   
    353. D(H  34,C  33,C  19,O   9)   -174.1532         0.028138   
    354. D(C  30,C  33,C  19,C  41)   -171.0050         0.028138   
    355. D(H  34,C  33,C  30,C  35)     -8.7112         0.027652   
    356. D(C  30,C  33,C  19,O   9)      5.9336         0.028138   
    357. D(F  42,C  35,C  30,O   6)     96.3572         0.010738   
    358. D(F  37,C  35,C  30,C  33)     15.8845         0.010738   
    359. D(F  37,C  35,C  30,O   6)   -166.7302         0.010738   
    360. D(F  36,C  35,C  30,C  33)    172.7981         0.010738   
    361. D(F  36,C  35,C  30,O   6)     -9.8166         0.010738   
    362. D(F  40,C  41,C  19,O   9)   -101.3356         0.010266   
    363. D(F  39,C  41,C  19,C  33)   -173.4629         0.010266   
    364. D(F  39,C  41,C  19,O   9)      9.1613         0.010266   
    365. D(F  38,C  41,C  19,C  33)    -22.0417         0.010266   
    366. D(F  38,C  41,C  19,O   9)    160.5826         0.010266   
    -----------------------------------------------------------------

Number of atoms                         .... 43
Number of degrees of freedom            .... 366


         *************************************************************
         *                GEOMETRY OPTIMIZATION CYCLE   1            *
         *************************************************************
---------------------------------
CARTESIAN COORDINATES (ANGSTROEM)
---------------------------------
  Cr     4.884200   10.282300    3.358300
  F      8.368800    9.012200    6.102400
  O      4.232300   11.002300    5.058400
  O      3.606500    8.813400    3.580700
  F      6.648700    7.984000    6.869900
  O      6.212200    9.330500    4.413600
  O      5.531500    9.423900    1.639100
  O      6.151000   11.763100    3.210300
  F      5.105100   11.843500    7.667500
  O      3.490400   11.247200    2.246400
  F      4.730100    9.849900    8.411500
  F      3.131500   10.997600    7.556600
  F      7.315900    9.821500    7.786900
  F      2.845400    6.286200    5.884900
  F      8.390000   13.650200    5.186900
  F      2.663700    6.363100    3.759700
  F      6.864800   14.372000    3.911100
  F      8.479300   13.252700    3.095800
  C      6.846000   12.049400    4.294500
  C      3.293700   11.136000    1.012000
  F      1.305800    7.465800    5.002600
  C      2.595600    7.118000    4.854600
  C      6.931800   11.362000    5.453700
  H      7.414000   11.729000    6.159300
  C      3.491500    8.318900    4.801900
  C      6.271400   10.013200    5.642800
  C      7.135800    9.194400    6.607900
  C      4.725300   10.111400    6.034200
  C      4.006500    8.785000    5.952500
  H      3.918500    8.273000    6.724100
  C      5.049500    9.569500    0.484900
  C      7.642300   13.317800    4.129800
  C      4.445700   10.711200    7.420200
  C      4.018000   10.406000    0.084400
  H      3.809400   10.476500   -0.819100
  C      5.661500    8.647800   -0.565900
  F      6.686200    7.985200   -0.252800
  F      5.414900    8.915200   -1.768300
  F      2.007900   12.102600   -0.719100
  F      1.450800   12.642200    1.336700
  F      1.026200   10.790500    0.347200
  C      2.044300   11.864800    0.505900
  F      4.679900    7.474100   -0.627400

----------------------------
CARTESIAN COORDINATES (A.U.)
----------------------------
  NO LB      ZA    FRAG     MASS         X           Y           Z
   0 Cr   24.0000    0    52.000    9.229800   19.430731    6.346267
   1 F     9.0000    0    18.998   15.814740   17.030590   11.531865
   2 O     8.0000    0    15.999    7.997888   20.791334    9.558991
   3 O     8.0000    0    15.999    6.815297   16.654912    6.766542
   4 F     9.0000    0    18.998   12.564222   15.087573   12.982230
   5 O     8.0000    0    15.999   11.739357   17.632090    8.340495
   6 O     8.0000    0    15.999   10.453020   17.808590    3.097450
   7 O     8.0000    0    15.999   11.623705   22.229037    6.066588
   8 F     9.0000    0    18.998    9.647241   22.380971   14.489475
   9 O     8.0000    0    15.999    6.595900   21.254128    4.245081
  10 F     9.0000    0    18.998    8.938594   18.613613   15.895431
  11 F     9.0000    0    18.998    5.917677   20.782452   14.279905
  12 F     9.0000    0    18.998   13.825047   18.559945   14.715108
  13 F     9.0000    0    18.998    5.377027   11.879196   11.120849
  14 F     9.0000    0    18.998   15.854802   25.795140    9.801820
  15 F     9.0000    0    18.998    5.033664   12.024516    7.104803
  16 F     9.0000    0    18.998   12.972592   27.159144    7.390908
  17 F     9.0000    0    18.998   16.023555   25.043974    5.850214
  18 C     6.0000    0    12.011   12.937065   22.770066    8.115429
  19 C     6.0000    0    12.011    6.224191   21.043990    1.912403
  20 F     9.0000    0    18.998    2.467604   14.108317    9.453544
  21 C     6.0000    0    12.011    4.904973   13.451071    9.173864
  22 C     6.0000    0    12.011   13.099204   21.471068   10.305999
  23 H     1.0000    0     1.008   14.010430   22.164598   11.639390
  24 C     6.0000    0    12.011    6.597979   15.720443    9.074276
  25 C     6.0000    0    12.011   11.851228   18.922206   10.663347
  26 C     6.0000    0    12.011   13.484708   17.374898   12.487121
  27 C     6.0000    0    12.011    8.929523   19.107777   11.402985
  28 C     6.0000    0    12.011    7.571188   16.601244   11.248595
  29 H     1.0000    0     1.008    7.404892   15.633704   12.706707
  30 C     6.0000    0    12.011    9.542172   18.083734    0.916328
  31 C     6.0000    0    12.011   14.441854   25.166995    7.804191
  32 C     6.0000    0    12.011    8.401155   20.241235   14.022146
  33 C     6.0000    0    12.011    7.592920   19.664490    0.159493
  34 H     1.0000    0     1.008    7.198723   19.797716   -1.547875
  35 C     6.0000    0    12.011   10.698685   16.341974   -1.069396
  36 F     9.0000    0    18.998   12.635087   15.089841   -0.477723
  37 F     9.0000    0    18.998   10.232678   16.847286   -3.341603
  38 F     9.0000    0    18.998    3.794381   22.870600   -1.358902
  39 F     9.0000    0    18.998    2.741615   23.890296    2.525997
  40 F     9.0000    0    18.998    1.939237   20.391090    0.656113
  41 C     6.0000    0    12.011    3.863167   22.421223    0.956012
  42 F     9.0000    0    18.998    8.843729   14.124002   -1.185614

--------------------------------
INTERNAL COORDINATES (ANGSTROEM)
--------------------------------
 Cr     0   0   0     0.000000000000     0.00000000     0.00000000
 F      1   0   0     4.613640209206     0.00000000     0.00000000
 O      1   2   0     1.957987134789    80.57579380     0.00000000
 O      1   2   3     1.959501533554   102.62744486   274.51536896
 F      2   1   3     2.145925324889    74.88372614    62.21625217
 O      1   2   3     1.945036074216    13.32033612   245.15281955
 O      1   2   3     2.027682541721    98.43228698   183.38180899
 O      1   2   3     1.954342569766    76.35285700    92.48576450
 F      3   1   2     2.876942837458   142.55757615    21.49576127
 O      1   2   3     2.027321400272   167.55387519    65.67015969
 F      9   3   1     2.160694786406    89.41796280   267.59186074
 F     11   9   3     2.145598112415    59.90528197   300.26773401
 F      2   1   3     2.145018682902    89.56930358     2.82821343
 F      4   1   2     3.503619655442   139.20103548    22.00497185
 F      8   1   2     3.532876302675   140.63852265   321.44709451
 F     14   4   1     2.134339134252    48.52126641   211.61391345
 F     15   8   1     2.115394979667    52.25777536   231.80366503
 F     17  15   8     2.127006542068    60.28694530   297.57126181
 C      8   1   2     1.319273409874   116.33821939   326.03111941
 C     10   1   6     1.254910231849   127.23474193   308.69605629
 F     14   4   1     2.130792718685    59.02434146   135.38110091
 C     16  14   4     1.331659727558    37.44776886   327.19581139
 C     19   8   1     1.350416617196   128.93611291     9.09434828
 H     23  19   8     0.930095263938   118.90093926   184.90868748
 C      4   1   2     1.322529655622   116.21822335    38.71634634
 C      6   1   8     1.407308271133   105.38048116    70.57272091
 C      5   2   1     1.330781187874    36.90755500   301.11120761
 C      3   1   2     1.410296936819   104.60156218   327.84231040
 C     25   4   1     1.344006908464   128.86703171     9.00465019
 H     29  25   4     0.930190604124   118.88160267   186.85034703
 C      7   1   2     1.259246203091   127.30049602   188.97791508
 C     17  15   8     1.328033726981    37.60032944   337.51401417
 C      9   3   1     1.333442514696    55.49317757   253.63722184
 C     20  10   1     1.384901530796   128.57799883   355.40291339
 H     34  20  10     0.929944331667   119.56900405   185.84680764
 C     31   7   1     1.525862225104   114.06958789   187.25006949
 F     36  31   7     1.259793816464   118.21550224   350.18344443
 F     36  31   7     1.256216573685   116.86203797   193.26981187
 F     20  10   1     2.363113287593   140.31967106   186.72760014
 F     39  20  10     2.197235128519    63.44944728   347.83817828
 F     39  20  10     1.955079791211    66.36974454   278.83276016
 C     39  20  10     1.248398494072    35.64922162   331.65553390
 F     36  31   7     1.531304182715   103.50568364    96.35716526

---------------------------
INTERNAL COORDINATES (A.U.)
---------------------------
 Cr     0   0   0     0.000000000000     0.00000000     0.00000000
 F      1   0   0     8.718516475846     0.00000000     0.00000000
 O      1   2   0     3.700059458493    80.57579380     0.00000000
 O      1   2   3     3.702921257416   102.62744486   274.51536896
 F      2   1   3     4.055211167886    74.88372614    62.21625217
 O      1   2   3     3.675585500865    13.32033612   245.15281955
 O      1   2   3     3.831764690386    98.43228698   183.38180899
 O      1   2   3     3.693172228722    76.35285700    92.48576450
 F      3   1   2     5.436634065742   142.55757615    21.49576127
 O      1   2   3     3.831082231951   167.55387519    65.67015969
 F      9   3   1     4.083121405298    89.41796280   267.59186074
 F     11   9   3     4.054592825923    59.90528197   300.26773401
 F      2   1   3     4.053497862830    89.56930358     2.82821343
 F      4   1   2     6.620881626209   139.20103548    22.00497185
 F      8   1   2     6.676168677075   140.63852265   321.44709451
 F     14   4   1     4.033316440647    48.52126641   211.61391345
 F     15   8   1     3.997517176642    52.25777536   231.80366503
 F     17  15   8     4.019459849567    60.28694530   297.57126181
 C      8   1   2     2.493065440426   116.33821939   326.03111941
 C     10   1   6     2.371436660851   127.23474193   308.69605629
 F     14   4   1     4.026614686468    59.02434146   135.38110091
 C     16  14   4     2.516472188657    37.44776886   327.19581139
 C     19   8   1     2.551917573197   128.93611291     9.09434828
 H     23  19   8     1.757625327300   118.90093926   184.90868748
 C      4   1   2     2.499218853115   116.21822335    38.71634634
 C      6   1   8     2.659427218444   105.38048116    70.57272091
 C      5   2   1     2.514811989257    36.90755500   301.11120761
 C      3   1   2     2.665074978095   104.60156218   327.84231040
 C     25   4   1     2.539804979096   128.86703171     9.00465019
 H     29  25   4     1.757805494141   118.88160267   186.85034703
 C      7   1   2     2.379630459023   127.30049602   188.97791508
 C     17  15   8     2.509620040606    37.60032944   337.51401417
 C      9   3   1     2.519841168104    55.49317757   253.63722184
 C     20  10   1     2.617084615652   128.57799883   355.40291339
 H     34  20  10     1.757340106643   119.56900405   185.84680764
 C     31   7   1     2.883461723543   114.06958789   187.25006949
 F     36  31   7     2.380665298324   118.21550224   350.18344443
 F     36  31   7     2.373905289157   116.86203797   193.26981187
 F     20  10   1     4.465636936982   140.31967106   186.72760014
 F     39  20  10     4.152172644733    63.44944728   347.83817828
 F     39  20  10     3.694565375352    66.36974454   278.83276016
 C     39  20  10     2.359131259795    35.64922162   331.65553390
 F     36  31   7     2.893745533059   103.50568364    96.35716526

---------------------
BASIS SET INFORMATION
---------------------
There are 5 groups of distinct atoms

 Group   1 Type Cr  : 17s11p7d1f contracted to 6s4p4d1f pattern {842111/6311/4111/1}
 Group   2 Type F   : 11s6p2d1f contracted to 5s3p2d1f pattern {62111/411/11/1}
 Group   3 Type O   : 11s6p2d1f contracted to 5s3p2d1f pattern {62111/411/11/1}
 Group   4 Type C   : 11s6p2d1f contracted to 5s3p2d1f pattern {62111/411/11/1}
 Group   5 Type H   : 5s1p contracted to 3s1p pattern {311/1}

Atom   0Cr   basis set group =>   1
Atom   1F    basis set group =>   2
Atom   2O    basis set group =>   3
Atom   3O    basis set group =>   3
Atom   4F    basis set group =>   2
Atom   5O    basis set group =>   3
Atom   6O    basis set group =>   3
Atom   7O    basis set group =>   3
Atom   8F    basis set group =>   2
Atom   9O    basis set group =>   3
Atom  10F    basis set group =>   2
Atom  11F    basis set group =>   2
Atom  12F    basis set group =>   2
Atom  13F    basis set group =>   2
Atom  14F    basis set group =>   2
Atom  15F    basis set group =>   2
Atom  16F    basis set group =>   2
Atom  17F    basis set group =>   2
Atom  18C    basis set group =>   4
Atom  19C    basis set group =>   4
Atom  20F    basis set group =>   2
Atom  21C    basis set group =>   4
Atom  22C    basis set group =>   4
Atom  23H    basis set group =>   5
Atom  24C    basis set group =>   4
Atom  25C    basis set group =>   4
Atom  26C    basis set group =>   4
Atom  27C    basis set group =>   4
Atom  28C    basis set group =>   4
Atom  29H    basis set group =>   5
Atom  30C    basis set group =>   4
Atom  31C    basis set group =>   4
Atom  32C    basis set group =>   4
Atom  33C    basis set group =>   4
Atom  34H    basis set group =>   5
Atom  35C    basis set group =>   4
Atom  36F    basis set group =>   2
Atom  37F    basis set group =>   2
Atom  38F    basis set group =>   2
Atom  39F    basis set group =>   2
Atom  40F    basis set group =>   2
Atom  41C    basis set group =>   4
Atom  42F    basis set group =>   2
---------------------------------
AUXILIARY/J BASIS SET INFORMATION
---------------------------------
There are 5 groups of distinct atoms

 Group   1 Type Cr  : 19s5p5d3f3g contracted to 8s5p5d2f3g pattern {121111111/11111/11111/21/111}
 Group   2 Type F   : 12s5p4d2f1g contracted to 6s4p3d1f1g pattern {711111/2111/211/2/1}
 Group   3 Type O   : 12s5p4d2f1g contracted to 6s4p3d1f1g pattern {711111/2111/211/2/1}
 Group   4 Type C   : 12s5p4d2f1g contracted to 6s4p3d1f1g pattern {711111/2111/211/2/1}
 Group   5 Type H   : 5s2p1d contracted to 3s1p1d pattern {311/2/1}

Atom   0Cr   basis set group =>   1
Atom   1F    basis set group =>   2
Atom   2O    basis set group =>   3
Atom   3O    basis set group =>   3
Atom   4F    basis set group =>   2
Atom   5O    basis set group =>   3
Atom   6O    basis set group =>   3
Atom   7O    basis set group =>   3
Atom   8F    basis set group =>   2
Atom   9O    basis set group =>   3
Atom  10F    basis set group =>   2
Atom  11F    basis set group =>   2
Atom  12F    basis set group =>   2
Atom  13F    basis set group =>   2
Atom  14F    basis set group =>   2
Atom  15F    basis set group =>   2
Atom  16F    basis set group =>   2
Atom  17F    basis set group =>   2
Atom  18C    basis set group =>   4
Atom  19C    basis set group =>   4
Atom  20F    basis set group =>   2
Atom  21C    basis set group =>   4
Atom  22C    basis set group =>   4
Atom  23H    basis set group =>   5
Atom  24C    basis set group =>   4
Atom  25C    basis set group =>   4
Atom  26C    basis set group =>   4
Atom  27C    basis set group =>   4
Atom  28C    basis set group =>   4
Atom  29H    basis set group =>   5
Atom  30C    basis set group =>   4
Atom  31C    basis set group =>   4
Atom  32C    basis set group =>   4
Atom  33C    basis set group =>   4
Atom  34H    basis set group =>   5
Atom  35C    basis set group =>   4
Atom  36F    basis set group =>   2
Atom  37F    basis set group =>   2
Atom  38F    basis set group =>   2
Atom  39F    basis set group =>   2
Atom  40F    basis set group =>   2
Atom  41C    basis set group =>   4
Atom  42F    basis set group =>   2


           ************************************************************
           *        Program running with 16 parallel MPI-processes    *
           *              working on a common directory               *
           ************************************************************
------------------------------------------------------------------------------
                             ORCA STARTUP CALCULATIONS
                           -- RI-GTO INTEGRALS CHOSEN --
------------------------------------------------------------------------------
------------------------------------------------------------------------------
                   ___                                                        
                  /   \      - P O W E R E D   B Y -                         
                 /     \                                                     
                 |  |  |   _    _      __       _____    __    __             
                 |  |  |  | |  | |    /  \     |  _  \  |  |  /  |          
                  \  \/   | |  | |   /    \    | | | |  |  | /  /          
                 / \  \   | |__| |  /  /\  \   | |_| |  |  |/  /          
                |  |  |   |  __  | /  /__\  \  |    /   |      \           
                |  |  |   | |  | | |   __   |  |    \   |  |\   \          
                \     /   | |  | | |  |  |  |  | |\  \  |  | \   \       
                 \___/    |_|  |_| |__|  |__|  |_| \__\ |__|  \__/        
                                                                              
                      - O R C A' S   B I G   F R I E N D -                    
                                      &                                       
                       - I N T E G R A L  F E E D E R -                       
                                                                              
 v1 FN, 2020, v2 2021, v3 2022-2024                                           
------------------------------------------------------------------------------


----------------------
SHARK INTEGRAL PACKAGE
----------------------

Number of atoms                             ...     43
Number of basis functions                   ...   1272
Number of shells                            ...    456
Maximum angular momentum                    ...      3
Integral batch strategy                     ... SHARK/LIBINT Hybrid
RI-J (if used) integral strategy            ... SPLIT-RIJ (Revised 2003 algorithm where possible)
Printlevel                                  ...      1
Contraction scheme used                     ... SEGMENTED contraction
Prescreening option                         ... SCHWARTZ
   Thresh                                   ... 2.500e-11
   Tcut                                     ... 2.500e-12
   Tpresel                                  ... 2.500e-12 
Coulomb Range Separation                    ... NOT USED
Exchange Range Separation                   ... NOT USED
Multipole approximations                    ... NOT USED
Finite Nucleus Model                        ... NOT USED
CABS basis                                  ... NOT available
Auxiliary Coulomb fitting basis             ... AVAILABLE
   # of basis functions in Aux-J            ...   2033
   # of shells in Aux-J                     ...    623
   Maximum angular momentum in Aux-J        ...      4
Auxiliary J/K fitting basis                 ... NOT available
Auxiliary Correlation fitting basis         ... NOT available
Auxiliary 'external' fitting basis          ... NOT available

Checking pre-screening integrals            ... done (  0.0 sec) Dimension = 456
Check shell pair data                       ... done (  0.0 sec)
Shell pair information
Shell pair cut-off parameter TPreSel        ...   2.5e-12
Total number of shell pairs                 ...    104196
Shell pairs after pre-screening             ...     55218
Total number of primitive shell pairs       ...    349121
Primitive shell pairs kept                  ...    112783
          la=0 lb=0:  10784 shell pairs
          la=1 lb=0:  15423 shell pairs
          la=1 lb=1:   5360 shell pairs
          la=2 lb=0:   8142 shell pairs
          la=2 lb=1:   6018 shell pairs
          la=2 lb=2:   1581 shell pairs
          la=3 lb=0:   3547 shell pairs
          la=3 lb=1:   2748 shell pairs
          la=3 lb=2:   1317 shell pairs
          la=3 lb=3:    298 shell pairs

Calculating one electron integrals          ... done (  0.1 sec)
done (  0.3 sec)
Calculating Nuclear repulsion               ... done (  0.0 sec) ENN=   6511.204201878852 Eh

Diagonalization of the overlap matrix:
Smallest eigenvalue                        ... 2.993e-05
Time for diagonalization                   ...    0.178 sec
Threshold for overlap eigenvalues          ... 1.000e-07
Number of eigenvalues below threshold      ... 0
Time for construction of square roots      ...    0.209 sec
Total time needed                          ...    0.415 sec

-------------------
DFT GRID GENERATION
-------------------

General Integration Accuracy     IntAcc      ... 4.959
Radial Grid Type                 RadialGrid  ... OptM3 with GC (2021)
Angular Grid (max. ang.)         AngularGrid ... 6 (Lebedev-590)
Angular grid pruning method      GridPruning ... 4 (adaptive)
Weight generation scheme         WeightScheme... mBecke (2022)
Basis function cutoff            BFCut       ... 1.0000e-11
Integration weight cutoff        WCut        ... 1.0000e-14
Partially contracted basis set               ... off
Rotationally invariant grid construction     ... off
Angular grids for H and He will be reduced by one unit
Core-polarized basis detected: some atoms will have their core
                               angular grid increased.

Total number of grid points                  ...   608092
Total number of batches                      ...     9521
Average number of points per batch           ...       63
Average number of grid points per atom       ...    14142

--------------------
COSX GRID GENERATION
--------------------

GRIDX 1
-------
General Integration Accuracy     IntAcc      ... 4.020
Radial Grid Type                 RadialGrid  ... OptM3 with GC (2021)
Angular Grid (max. ang.)         AngularGrid ... 2 (Lebedev-110)
Angular grid pruning method      GridPruning ... 4 (adaptive)
Weight generation scheme         WeightScheme... mBecke (2022)
Basis function cutoff            BFCut       ... 1.0000e-11
Integration weight cutoff        WCut        ... 1.0000e-14
Partially contracted basis set               ... on
Rotationally invariant grid construction     ... off
Angular grids for H and He will be reduced by one unit
Core-polarized basis detected: some atoms will have their core
                               angular grid increased.

Total number of grid points                  ...    76524
Total number of batches                      ...      621
Average number of points per batch           ...      123
Average number of grid points per atom       ...     1780
UseSFitting                                  ... on

GRIDX 2
-------
General Integration Accuracy     IntAcc      ... 4.338
Radial Grid Type                 RadialGrid  ... OptM3 with GC (2021)
Angular Grid (max. ang.)         AngularGrid ... 3 (Lebedev-194)
Angular grid pruning method      GridPruning ... 4 (adaptive)
Weight generation scheme         WeightScheme... mBecke (2022)
Basis function cutoff            BFCut       ... 1.0000e-11
Integration weight cutoff        WCut        ... 1.0000e-14
Partially contracted basis set               ... on
Rotationally invariant grid construction     ... off
Angular grids for H and He will be reduced by one unit
Core-polarized basis detected: some atoms will have their core
                               angular grid increased.

Total number of grid points                  ...   162754
Total number of batches                      ...     1293
Average number of points per batch           ...      125
Average number of grid points per atom       ...     3785
UseSFitting                                  ... on

GRIDX 3
-------
General Integration Accuracy     IntAcc      ... 4.871
Radial Grid Type                 RadialGrid  ... OptM3 with GC (2021)
Angular Grid (max. ang.)         AngularGrid ... 4 (Lebedev-302)
Angular grid pruning method      GridPruning ... 4 (adaptive)
Weight generation scheme         WeightScheme... mBecke (2022)
Basis function cutoff            BFCut       ... 1.0000e-11
Integration weight cutoff        WCut        ... 1.0000e-14
Partially contracted basis set               ... on
Rotationally invariant grid construction     ... off
Angular grids for H and He will be reduced by one unit
Core-polarized basis detected: some atoms will have their core
                               angular grid increased.

Total number of grid points                  ...   287484
Total number of batches                      ...     2266
Average number of points per batch           ...      126
Average number of grid points per atom       ...     6686
UseSFitting                                  ... on
Initializing property integral containers    ... done (  0.0 sec)

SHARK setup successfully completed in  13.1 seconds

Maximum memory used throughout the entire STARTUP-calculation: 182.1 MB


           ************************************************************
           *        Program running with 16 parallel MPI-processes    *
           *              working on a common directory               *
           ************************************************************
-------------------------------------------------------------------------------
                                 ORCA GUESS
                   Start orbitals & Density for SCF / CASSCF
-------------------------------------------------------------------------------

------------
SCF SETTINGS
------------
Hamiltonian:
 Density Functional     Method          .... DFT(GTOs)
 Exchange Functional    Exchange        .... PBE
   PBE kappa parameter   XKappa         ....  0.804000
   PBE mue parameter    XMuePBE         ....  0.219520
 Correlation Functional Correlation     .... PBE
   PBE beta parameter  CBetaPBE         ....  0.066725
 LDA part of GGA corr.  LDAOpt          .... PW91-LDA
 Gradients option       PostSCFGGA      .... off
 Hybrid DFT is turned on
   Fraction HF Exchange ScalHFX         ....  0.250000
   Scaling of DF-GGA-X  ScalDFX         ....  0.750000
   Scaling of DF-GGA-C  ScalDFC         ....  1.000000
   Scaling of DF-LDA-C  ScalLDAC        ....  1.000000
   Perturbative correction              ....  0.000000
   NL short-range parameter             ....  6.900000
 RI-approximation to the Coulomb term is turned on
   Number of AuxJ basis functions       .... 2033
   RIJ-COSX (HFX calculated with COS-X)).... on


General Settings:
 Integral files         IntName         .... WULCEO-S5
 Hartree-Fock type      HFTyp           .... UHF
 Total Charge           Charge          ....   -3
 Multiplicity           Mult            ....    3
 Number of Electrons    NEL             ....  330
 Basis Dimension        Dim             .... 1272
 Nuclear Repulsion      ENuc            ....   6511.2042018789 Eh

Convergence Acceleration:
 AO-DIIS                CNVDIIS         .... on
   Start iteration      DIISMaxIt       ....    12
   Startup error        DIISStart       ....  0.200000
   # of expansion vecs  DIISMaxEq       ....     5
   Bias factor          DIISBfac        ....   1.050
   Max. coefficient     DIISMaxC        ....  10.000
 MO-DIIS                CNVKDIIS        .... off
 Trust-Rad. Augm. Hess. CNVTRAH         .... auto
   Auto Start mean grad. ratio tolernc. ....  1.125000
   Auto Start start iteration           ....    50
   Auto Start num. interpolation iter.  ....    10
   Max. Number of Micro iterations      ....    24
   Max. Number of Macro iterations      .... Maxiter - #DIIS iter
   Number of Davidson start vectors     ....     2
   Converg. threshold    (grad. norm)   ....   1.000e-05
   Grad. Scal. Fac. for Micro threshold ....   0.100
   Minimum threshold for Micro iter.    ....   1.000e-02
   NR start threshold (gradient norm)   ....   1.000e-04
   Initial trust radius                 ....   0.400
   Minimum AH scaling param. (alpha)    ....   1.000
   Maximum AH scaling param. (alpha)    .... 1000.000
   Quad. conv. algorithm                .... NR
   White noise on init. David. guess    .... on
   Maximum white noise                  ....   0.010
   Pseudo random numbers                .... off
   Inactive MOs                         .... canonical
   Orbital update algorithm             .... Taylor
   Preconditioner                       .... Diag
   Full preconditioner red. dimension   ....   250
 SOSCF                  CNVSOSCF        .... on
   Start iteration      SOSCFMaxIt      ....   150
   Startup grad/error   SOSCFStart      ....  0.003300
   Hessian update       SOSCFHessUp     .... L-BFGS
 Level Shifting         CNVShift        .... on
   Level shift para.    LevelShift      ....    0.2500
   Turn off err/grad.   ShiftErr        ....    0.0010
 Zerner damping         CNVZerner       .... off
 Static damping         CNVDamp         .... on
   Fraction old density DampFac         ....    0.7000
   Max. Damping (<1)    DampMax         ....    0.9800
   Min. Damping (>=0)   DampMin         ....    0.0000
   Turn off err/grad.   DampErr         ....    0.1000

SCF Procedure:
 Maximum # iterations   MaxIter         ....   125
 SCF integral mode      SCFMode         .... Direct
   Integral package                     .... SHARK and LIBINT hybrid scheme
 Reset frequency        DirectResetFreq ....    20
 Integral Threshold     Thresh          ....  2.500e-11 Eh
 Primitive CutOff       TCut            ....  2.500e-12 Eh

Convergence Tolerance:
 Convergence Check Mode ConvCheckMode   .... Total+1el-Energy
 Convergence forced     ConvForced      .... 0
 Energy Change          TolE            ....  1.000e-08 Eh
 1-El. energy change                    ....  1.000e-05 Eh
 Orbital Gradient       TolG            ....  1.000e-05
 Orbital Rotation angle TolX            ....  1.000e-05
 DIIS Error             TolErr          ....  5.000e-07

------------------------------
INITIAL GUESS: MODEL POTENTIAL
------------------------------
Loading Hartree-Fock densities                     ... done
Calculating cut-offs                               ... done
Initializing the effective Hamiltonian             ... done
Setting up the integral package (SHARK)            ... done
done (   0.5 sec)
Making the grid                                    ... done (   0.4 sec)
Mapping shells                                     ... done
Starting the XC term evaluation                    ... done (   0.3 sec)
  promolecular density results
     # of electrons  =    326.996910912
     EX              =   -354.107280515
     EC              =    -11.698353238
     EX+EC           =   -365.805633753
done (   0.2 sec)
done (   0.2 sec)
Back transforming the eigenvectors                 ... done (   0.1 sec)
done
                      ------------------
                      INITIAL GUESS DONE (   2.0 sec)
                      ------------------
             **** ENERGY FILE WAS UPDATED (WULCEO-S5.en.tmp) ****
Finished Guess after   2.6 sec
Maximum memory used throughout the entire GUESS-calculation: 115.4 MB


           ************************************************************
           *        Program running with 16 parallel MPI-processes    *
           *              working on a common directory               *
           ************************************************************

-------------------------------------------------------------------------------------------
                                      ORCA LEAN-SCF
                              memory conserving SCF solver
-------------------------------------------------------------------------------------------

----------------------------------------D-I-I-S--------------------------------------------
Iteration    Energy (Eh)           Delta-E    RMSDP     MaxDP     DIISErr   Damp  Time(sec)
-------------------------------------------------------------------------------------------
               ***  Starting incremental Fock matrix formation  ***
    1    -3863.1677286975464085     0.00e+00  1.25e-03  2.78e-01  1.46e-01  0.700  34.7
Warning: op=0 Small HOMO/LUMO gap (   0.052) - skipping pre-diagonalization
         Will do a full diagonalization
    2    -3863.8082706906752719    -6.41e-01  7.90e-04  1.41e-01  5.10e-02  0.700  18.5
                               ***Turning on AO-DIIS***
    3    -3864.0268076536740409    -2.19e-01  2.61e-04  3.77e-02  2.20e-02  0.700  16.0
    4    -3864.1673104453511769    -1.41e-01  6.08e-04  1.67e-01  9.88e-03  0.000  14.8
    5    -3864.4946118387033493    -3.27e-01  1.94e-04  3.36e-02  7.74e-03  0.000  16.0
    6    -3864.4990834295658715    -4.47e-03  8.42e-05  1.57e-02  1.10e-02  0.000  14.7
    7    -3864.5036710387576022    -4.59e-03  6.19e-05  1.95e-02  8.65e-03  0.000  14.0
    8    -3864.5086049096444185    -4.93e-03  4.27e-05  1.24e-02  9.07e-03  0.000  13.9
    9    -3864.5122650679440994    -3.66e-03  2.12e-05  3.70e-03  9.72e-03  0.000  13.1
   10    -3864.5136217553808820    -1.36e-03  2.39e-05  6.43e-03  1.02e-02  0.000  12.3
   11    -3864.5156753039882460    -2.05e-03  2.56e-05  9.01e-03  1.07e-02  0.000  12.7
   12    -3864.5177216102856619    -2.05e-03  3.57e-05  1.10e-02  9.11e-03  0.000  12.7
   13    -3864.5212676009632560    -3.55e-03  5.35e-05  1.68e-02  8.78e-03  0.000  13.1
   14    -3864.5265879551461694    -5.32e-03  8.34e-05  2.47e-02  8.36e-03  0.000  13.3
   15    -3864.5342996801500703    -7.71e-03  8.85e-05  2.33e-02  7.36e-03  0.000  14.0
   16    -3864.5404473207145202    -6.15e-03  4.44e-05  6.14e-03  4.94e-03  0.000  14.0
   17    -3864.5425985344081710    -2.15e-03  4.21e-05  8.14e-03  3.79e-03  0.000  13.1
                              *** Initializing SOSCF ***
---------------------------------------S-O-S-C-F--------------------------------------
Iteration    Energy (Eh)           Delta-E    RMSDP     MaxDP     MaxGrad    Time(sec)
--------------------------------------------------------------------------------------
   18    -3864.5439147458091611    -1.32e-03  2.67e-05  3.39e-03  2.69e-03    14.7
               *** Restarting incremental Fock matrix formation ***
   19    -3864.5444851156225923    -5.70e-04  3.81e-05  5.59e-03  4.04e-03    33.8
   20    -3864.5447592363907461    -2.74e-04  3.24e-05  3.96e-03  9.84e-04    23.5
   21    -3864.5447269128544576     3.23e-05  1.80e-05  2.30e-03  1.23e-03    22.9
   22    -3864.5448161780132068    -8.93e-05  7.33e-06  1.43e-03  2.62e-04    21.9
   23    -3864.5448102563277644     5.92e-06  4.85e-06  1.04e-03  3.91e-04    18.9
   24    -3864.5448192005005694    -8.94e-06  1.18e-06  2.96e-04  3.77e-05    17.5
   25    -3864.5448191929099266     7.59e-09  6.17e-07  1.16e-04  5.77e-05    13.3
                 **** Energy Check signals convergence ****

               *****************************************************
               *                     SUCCESS                       *
               *           SCF CONVERGED AFTER  25 CYCLES          *
               *****************************************************

 done (   46.457 sec)
Old exchange energy                            :    -89.530256940 Eh
New exchange energy                            :    -89.530272561 Eh
Exchange energy change after final integration :     -0.000015621 Eh
Total energy after final integration           :  -3864.544834814 Eh
             **** ENERGY FILE WAS UPDATED (WULCEO-S5.en.tmp) ****

----------------
TOTAL SCF ENERGY
----------------

Total Energy       :      -3864.54483481399029 Eh         -105159.61117 eV

Components:
Nuclear Repulsion  :       6511.20420187885247 Eh          177178.87393 eV
Electronic Energy  :     -10375.74902107176240 Eh         -282338.48467 eV
One Electron Energy:     -18450.97525627538198 Eh         -502076.56180 eV
Two Electron Energy:       8075.22623520362049 Eh          219738.07713 eV

Virial components:
Potential Energy   :      -7720.37233572477635 Eh         -210082.01162 eV
Kinetic Energy     :       3855.82750091078606 Eh          104922.40045 eV
Virial Ratio       :          2.00226082051159

DFT components:
N(Alpha)           :      166.000017837674 electrons
N(Beta)            :      164.000021706462 electrons
N(Total)           :      330.000039544136 electrons
E(X)               :     -268.458416484840 Eh       
E(C)               :      -11.763569144238 Eh       
E(XC)              :     -280.221985629077 Eh       

---------------
SCF CONVERGENCE
---------------

  Last Energy change         ...   -7.5906e-09  Tolerance :   1.0000e-08
  Last MAX-Density change    ...    1.1632e-04  Tolerance :   1.0000e-07
  Last RMS-Density change    ...    6.1706e-07  Tolerance :   5.0000e-09
  Last DIIS Error            ...    2.6869e-03  Tolerance :   5.0000e-07
  Last Orbital Gradient      ...    5.7731e-05  Tolerance :   1.0000e-05
  Last Orbital Rotation      ...    6.3910e-05  Tolerance :   1.0000e-05


----------------------
UHF SPIN CONTAMINATION
----------------------

Warning: in a DFT calculation there is little theoretical justification to 
         calculate <S**2> as in Hartree-Fock theory. We will do it anyways
         but you should keep in mind that the values have only limited relevance

Expectation value of <S**2>     :     2.984120
Ideal value S*(S+1) for S=1.0   :     2.000000
Deviation                       :     0.984120

----------------
ORBITAL ENERGIES
----------------
                 SPIN UP ORBITALS
  NO   OCC          E(Eh)            E(eV) 
   0   1.0000    -215.634120     -5867.7027 
   1   1.0000     -24.515338      -667.0963 
   2   1.0000     -24.513008      -667.0329 
   3   1.0000     -24.511707      -666.9975 
   4   1.0000     -24.509601      -666.9401 
   5   1.0000     -24.509385      -666.9343 
   6   1.0000     -24.502811      -666.7554 
   7   1.0000     -24.500923      -666.7040 
   8   1.0000     -24.499925      -666.6769 
   9   1.0000     -24.499738      -666.6718 
  10   1.0000     -24.498970      -666.6509 
  11   1.0000     -24.496002      -666.5701 
  12   1.0000     -24.495700      -666.5619 
  13   1.0000     -24.493337      -666.4976 
  14   1.0000     -24.490913      -666.4316 
  15   1.0000     -24.488812      -666.3745 
  16   1.0000     -24.486727      -666.3177 
  17   1.0000     -24.484588      -666.2595 
  18   1.0000     -24.405859      -664.1172 
  19   1.0000     -24.381127      -663.4442 
  20   1.0000     -20.741150      -564.3954 
  21   1.0000     -20.740094      -564.3666 
  22   1.0000     -20.739996      -564.3640 
  23   1.0000     -18.830602      -512.4067 
  24   1.0000     -18.824083      -512.2293 
  25   1.0000     -18.821990      -512.1724 
  26   1.0000     -18.819999      -512.1182 
  27   1.0000     -18.799068      -511.5486 
  28   1.0000     -18.798177      -511.5244 
  29   1.0000     -10.154752      -276.3249 
[...]
 85:    770.30   0.011053   55.86  0.004478  ( 0.064591 -0.002440 -0.017321)
 86:    786.40   0.000545    2.75  0.000216  ( 0.003789 -0.000738  0.014186)
 87:    799.56   0.025769  130.23  0.010058  ( 0.073065 -0.064701 -0.023085)
 88:    871.95   0.013375   67.59  0.004787  (-0.016803  0.066633  0.008021)
 89:    905.55   0.001433    7.24  0.000494  ( 0.005806 -0.001177  0.021421)
 90:    948.08   0.002326   11.75  0.000766  (-0.007157  0.001479 -0.026686)
 91:    963.50   0.023771  120.13  0.007699  ( 0.084767 -0.001779 -0.022597)
 92:    973.06   0.002179   11.01  0.000699  (-0.006070  0.001360 -0.025692)
 93:   1033.49   0.002042   10.32  0.000617  ( 0.022116  0.009943 -0.005356)
 94:   1043.18   0.000107    0.54  0.000032  (-0.005416 -0.000449 -0.001580)
 95:   1044.52   0.091857  464.21  0.027444  (-0.110599 -0.121774  0.019559)
 96:   1054.46   0.029122  147.17  0.008618  (-0.020718  0.007960 -0.090143)
 97:   1064.78   0.000265    1.34  0.000078  (-0.004810 -0.001931 -0.007126)
 98:   1087.35   0.036053  182.20  0.010347  ( 0.069968 -0.070290 -0.022599)
 99:   1093.47   0.015087   76.24  0.004306  ( 0.043295 -0.047187 -0.014306)
100:   1096.65   0.056055  283.28  0.015951  (-0.084266  0.089979  0.027463)
101:   1109.17   0.020641  104.31  0.005807  (-0.032924  0.010160 -0.067972)
102:   1111.26   0.124646  629.91  0.035003  ( 0.162945 -0.073998 -0.054555)
103:   1115.44   0.015662   79.15  0.004382  (-0.019800  0.005091 -0.062959)
104:   1123.38   0.038792  196.04  0.010776  (-0.051083  0.088471  0.018425)
105:   1127.89   0.000622    3.14  0.000172  (-0.002217 -0.001333 -0.012862)
106:   1136.47   0.002489   12.58  0.000683  ( 0.004969 -0.025633 -0.001276)
107:   1141.07   0.084112  425.07  0.023003  (-0.038943  0.007676 -0.146382)
108:   1145.71   0.150178  758.94  0.040905  (-0.051556  0.010523 -0.195285)
109:   1157.15   0.016523   83.50  0.004456  (-0.017046  0.003358 -0.064452)
110:   1167.70   0.089280  451.18  0.023860  (-0.117528 -0.096857  0.025801)
111:   1186.38   0.051424  259.87  0.013526  (-0.087616 -0.073856  0.019878)
112:   1194.41   0.181660  918.03  0.047462  ( 0.149018 -0.151561 -0.047803)
113:   1219.39   0.004436   22.42  0.001135  (-0.008889  0.000876 -0.032489)
114:   1257.48   0.125729  635.38  0.031202  ( 0.029785  0.174104  0.001481)
115:   1263.32   0.046715  236.08  0.011540  ( 0.027680 -0.006039  0.103619)
116:   1305.67   0.029927  151.24  0.007153  (-0.077633 -0.027413  0.019353)
117:   1318.72   0.005971   30.18  0.001413  ( 0.009548 -0.001923  0.036307)
118:   1377.93   0.032434  163.91  0.007346  (-0.022016  0.004695 -0.082697)
119:   1418.87   0.007860   39.72  0.001729  ( 0.029831 -0.027344 -0.009540)
120:   1435.95   0.002181   11.02  0.000474  (-0.020791 -0.003862  0.005168)
121:   1452.19   0.038621  195.17  0.008299  (-0.023543  0.004665 -0.087882)
122:   1529.57   0.005857   29.60  0.001195  ( 0.025052 -0.022453 -0.007948)
123:   1562.99   0.077053  389.39  0.015384  (-0.031833  0.006689 -0.119692)
124:   1673.71   0.002776   14.03  0.000518  (-0.021204  0.005395  0.006239)
125:   1688.36   0.085517  432.17  0.015806  ( 0.032601 -0.006438  0.121252)
126:   3227.05   0.003478   17.58  0.000336  (-0.012251 -0.012973 -0.004233)
127:   3227.60   0.002889   14.60  0.000279  (-0.000825 -0.006655  0.015308)
128:   3236.78   0.002312   11.69  0.000223  ( 0.003834 -0.000806  0.014408)

* The epsilon (eps) is given for a Dirac delta lineshape.
** The dipole moment derivative (T) already includes vibrational overlap.

The first frequency considered to be a vibration is 6
The total number of vibrations considered is 123


--------------------------
THERMOCHEMISTRY AT 298.15K
--------------------------

Temperature         ...   298.15 K
Pressure            ...     1.00 atm
Total Mass          ...   673.15 AMU
Quasi RRHO          ...     True
Cut-Off Frequency   ...     1.00 cm^-1

Throughout the following assumptions are being made:
  (1) The electronic state is orbitally nondegenerate
      but the spin degeneracy is treated
  (2) There are no thermally accessible electronically excited states
  (3) Hindered rotations indicated by low frequency modes are not
      treated as such but are treated as vibrations and this may
      cause some error
  (4) All equations used are the standard statistical mechanics
      equations for an ideal gas
  (5) All vibrations are strictly harmonic

freq.      17.96  E(vib)   ...       0.57 
freq.      20.48  E(vib)   ...       0.56 
freq.      26.72  E(vib)   ...       0.56 
freq.      27.38  E(vib)   ...       0.55 
freq.      28.60  E(vib)   ...       0.55 
freq.      33.25  E(vib)   ...       0.55 
freq.      39.16  E(vib)   ...       0.54 
freq.      44.50  E(vib)   ...       0.53 
freq.      53.77  E(vib)   ...       0.52 
freq.      56.70  E(vib)   ...       0.52 
freq.      66.48  E(vib)   ...       0.50 
freq.      83.76  E(vib)   ...       0.48 
freq.      98.55  E(vib)   ...       0.46 
freq.      99.16  E(vib)   ...       0.46 
freq.     111.98  E(vib)   ...       0.45 
freq.     114.81  E(vib)   ...       0.44 
freq.     118.98  E(vib)   ...       0.44 
freq.     120.82  E(vib)   ...       0.44 
freq.     153.09  E(vib)   ...       0.40 
freq.     159.48  E(vib)   ...       0.39 
freq.     164.46  E(vib)   ...       0.39 
freq.     167.65  E(vib)   ...       0.38 
freq.     185.54  E(vib)   ...       0.37 
freq.     200.68  E(vib)   ...       0.35 
freq.     226.39  E(vib)   ...       0.33 
freq.     233.96  E(vib)   ...       0.32 
freq.     248.06  E(vib)   ...       0.31 
freq.     255.92  E(vib)   ...       0.30 
freq.     259.30  E(vib)   ...       0.30 
freq.     262.28  E(vib)   ...       0.29 
freq.     263.98  E(vib)   ...       0.29 
freq.     268.38  E(vib)   ...       0.29 
freq.     277.15  E(vib)   ...       0.28 
freq.     285.76  E(vib)   ...       0.28 
freq.     293.09  E(vib)   ...       0.27 
freq.     302.83  E(vib)   ...       0.26 
freq.     325.75  E(vib)   ...       0.24 
freq.     344.24  E(vib)   ...       0.23 
freq.     349.49  E(vib)   ...       0.23 
freq.     354.67  E(vib)   ...       0.22 
freq.     356.98  E(vib)   ...       0.22 
freq.     372.99  E(vib)   ...       0.21 
freq.     385.44  E(vib)   ...       0.20 
freq.     393.14  E(vib)   ...       0.20 
freq.     406.56  E(vib)   ...       0.19 
freq.     417.70  E(vib)   ...       0.18 
freq.     448.88  E(vib)   ...       0.17 
freq.     478.31  E(vib)   ...       0.15 
freq.     481.41  E(vib)   ...       0.15 
freq.     492.16  E(vib)   ...       0.14 
freq.     492.97  E(vib)   ...       0.14 
freq.     497.01  E(vib)   ...       0.14 
freq.     511.08  E(vib)   ...       0.14 
freq.     519.63  E(vib)   ...       0.13 
freq.     520.92  E(vib)   ...       0.13 
freq.     527.12  E(vib)   ...       0.13 
freq.     533.52  E(vib)   ...       0.13 
freq.     539.84  E(vib)   ...       0.12 
freq.     540.72  E(vib)   ...       0.12 
freq.     548.20  E(vib)   ...       0.12 
freq.     575.69  E(vib)   ...       0.11 
freq.     581.01  E(vib)   ...       0.11 
freq.     586.72  E(vib)   ...       0.11 
freq.     594.66  E(vib)   ...       0.10 
freq.     601.68  E(vib)   ...       0.10 
freq.     612.16  E(vib)   ...       0.10 
freq.     620.12  E(vib)   ...       0.09 
freq.     658.32  E(vib)   ...       0.08 
freq.     663.96  E(vib)   ...       0.08 
freq.     670.05  E(vib)   ...       0.08 
freq.     679.95  E(vib)   ...       0.08 
freq.     690.81  E(vib)   ...       0.07 
freq.     697.89  E(vib)   ...       0.07 
freq.     723.67  E(vib)   ...       0.06 
freq.     731.16  E(vib)   ...       0.06 
freq.     733.32  E(vib)   ...       0.06 
freq.     739.00  E(vib)   ...       0.06 
freq.     747.55  E(vib)   ...       0.06 
freq.     762.91  E(vib)   ...       0.06 
freq.     770.30  E(vib)   ...       0.05 
freq.     786.40  E(vib)   ...       0.05 
freq.     799.56  E(vib)   ...       0.05 
freq.     871.95  E(vib)   ...       0.04 
freq.     905.55  E(vib)   ...       0.03 
freq.     948.08  E(vib)   ...       0.03 
freq.     963.50  E(vib)   ...       0.03 
freq.     973.06  E(vib)   ...       0.03 
freq.    1033.49  E(vib)   ...       0.02 
freq.    1043.18  E(vib)   ...       0.02 
freq.    1044.52  E(vib)   ...       0.02 
freq.    1054.46  E(vib)   ...       0.02 
freq.    1064.78  E(vib)   ...       0.02 
freq.    1087.35  E(vib)   ...       0.02 
freq.    1093.47  E(vib)   ...       0.02 
freq.    1096.65  E(vib)   ...       0.02 
freq.    1109.17  E(vib)   ...       0.02 
freq.    1111.26  E(vib)   ...       0.01 
freq.    1115.44  E(vib)   ...       0.01 
freq.    1123.38  E(vib)   ...       0.01 
freq.    1127.89  E(vib)   ...       0.01 
freq.    1136.47  E(vib)   ...       0.01 
freq.    1141.07  E(vib)   ...       0.01 
freq.    1145.71  E(vib)   ...       0.01 
freq.    1157.15  E(vib)   ...       0.01 
freq.    1167.70  E(vib)   ...       0.01 
freq.    1186.38  E(vib)   ...       0.01 
freq.    1194.41  E(vib)   ...       0.01 
freq.    1219.39  E(vib)   ...       0.01 
freq.    1257.48  E(vib)   ...       0.01 
freq.    1263.32  E(vib)   ...       0.01 
freq.    1305.67  E(vib)   ...       0.01 
freq.    1318.72  E(vib)   ...       0.01 
freq.    1377.93  E(vib)   ...       0.01 
freq.    1418.87  E(vib)   ...       0.00 
freq.    1435.95  E(vib)   ...       0.00 
freq.    1452.19  E(vib)   ...       0.00 
freq.    1529.57  E(vib)   ...       0.00 
freq.    1562.99  E(vib)   ...       0.00 
freq.    1673.71  E(vib)   ...       0.00 
freq.    1688.36  E(vib)   ...       0.00 
freq.    3227.05  E(vib)   ...       0.00 
freq.    3227.60  E(vib)   ...       0.00 
freq.    3236.78  E(vib)   ...       0.00 

------------
INNER ENERGY
------------

The inner energy is: U= E(el) + E(ZPE) + E(vib) + E(rot) + E(trans)
    E(el)   - is the total energy from the electronic structure calculation
              = E(kin-el) + E(nuc-el) + E(el-el) + E(nuc-nuc)
    E(ZPE)  - the the zero temperature vibrational energy from the frequency calculation
    E(vib)  - the the finite temperature correction to E(ZPE) due to population
              of excited vibrational states
    E(rot)  - is the rotational thermal energy
    E(trans)- is the translational thermal energy

Summary of contributions to the inner energy U:
Electronic energy                ...  -3864.71086599 Eh
Zero point energy                ...      0.19667035 Eh     123.41 kcal/mol
Thermal vibrational correction   ...      0.03375796 Eh      21.18 kcal/mol
Thermal rotational correction    ...      0.00141627 Eh       0.89 kcal/mol
Thermal translational correction ...      0.00141627 Eh       0.89 kcal/mol
-----------------------------------------------------------------------
Total thermal energy                  -3864.47760513 Eh


Summary of corrections to the electronic energy:
(perhaps to be used in another calculation)
Total thermal correction                  0.03659050 Eh      22.96 kcal/mol
Non-thermal (ZPE) correction              0.19667035 Eh     123.41 kcal/mol
-----------------------------------------------------------------------
Total correction                          0.23326085 Eh     146.37 kcal/mol


--------
ENTHALPY
--------

The enthalpy is H = U + kB*T
                kB is Boltzmann's constant
Total thermal energy              ...  -3864.47760513 Eh 
Thermal Enthalpy correction       ...      0.00094421 Eh       0.59 kcal/mol
-----------------------------------------------------------------------
Total Enthalpy                    ...  -3864.47666092 Eh


Note: Only C1 symmetry has been detected, increase convergence thresholds 
      if your molecule has a higher symmetry. Symmetry factor of 1.0 is   
      used for the rotational entropy correction. 
 

Note: Rotational entropy computed according to Herzberg 
Infrared and Raman Spectra, Chapter V,1, Van Nostrand Reinhold, 1945 
Point Group:  C1, Symmetry Number:   1  
Rotational constants in cm-1:     0.003166     0.002285     0.001934 

Vibrational entropy computed according to the QRRHO of S. Grimme
Chem.Eur.J. 2012 18 9955 using a reference frequency of 100.0 cm-1


-------
ENTROPY
-------

The entropy contributions are T*S = T*(S(el)+S(vib)+S(rot)+S(trans))
     S(el)   - electronic entropy
     S(vib)  - vibrational entropy
     S(rot)  - rotational entropy
     S(trans)- translational entropy
The entropies will be listed as multiplied by the temperature to get
units of energy

Electronic entropy                ...      0.00103729 Eh      0.65 kcal/mol
Vibrational entropy               ...      0.06109285 Eh     38.34 kcal/mol
Rotational entropy                ...      0.01804853 Eh     11.33 kcal/mol
Translational entropy             ...      0.02157178 Eh     13.54 kcal/mol
-----------------------------------------------------------------------
Final entropy term                ...      0.10175045 Eh     63.85 kcal/mol

In case the symmetry of your molecule has not been determined correctly
or in case you have a reason to use a different symmetry number we print 
out the resulting rotational entropy values for sn=1,12:

 non-linear molecules -----------------------------------
|  sn= 1 | S(rot)=       0.01804853 Eh     11.33 kcal/mol|
|  sn= 2 | S(rot)=       0.01739408 Eh     10.91 kcal/mol|
|  sn= 3 | S(rot)=       0.01701124 Eh     10.67 kcal/mol|
|  sn= 4 | S(rot)=       0.01673962 Eh     10.50 kcal/mol|
|  sn= 5 | S(rot)=       0.01652893 Eh     10.37 kcal/mol|
|  sn= 6 | S(rot)=       0.01635679 Eh     10.26 kcal/mol|
|  sn= 7 | S(rot)=       0.01621124 Eh     10.17 kcal/mol|
|  sn= 8 | S(rot)=       0.01608516 Eh     10.09 kcal/mol|
|  sn= 9 | S(rot)=       0.01597396 Eh     10.02 kcal/mol|
|  sn=10 | S(rot)=       0.01587448 Eh      9.96 kcal/mol|
|  sn=11 | S(rot)=       0.01578449 Eh      9.90 kcal/mol|
|  sn=12 | S(rot)=       0.01570233 Eh      9.85 kcal/mol|
 linear molecules ---------------------------------------
|  Dinfh | S(rot)=       0.01122543 Eh      7.04 kcal/mol|
|  Cinfv | S(rot)=       0.01187989 Eh      7.45 kcal/mol|
 --------------------------------------------------------


-------------------
GIBBS FREE ENERGY
-------------------

The Gibbs free energy is G = H - T*S

Total enthalpy                    ...  -3864.47666092 Eh 
Total entropy correction          ...     -0.10175045 Eh    -63.85 kcal/mol
-----------------------------------------------------------------------
Final Gibbs free energy         ...  -3864.57841138 Eh

For completeness - the Gibbs free energy minus the electronic energy
G-E(el)                           ...      0.13245461 Eh     83.12 kcal/mol


Maximum memory used throughout the entire PROP-calculation: 1537.4 MB

--------------------------------
SUGGESTED CITATIONS FOR THIS RUN
--------------------------------

Below you find a list of papers that are relevant to this ORCA run
We neither can nor want to force you to cite these papers, but we appreciate if you do
You receive ORCA, which is the product of decades of hard work by many enthusiastic individuals, for free
The only thing we kindly ask in return is that you cite our papers,
We deeply appreciate it, if you show your appreciation for ORCA by not just citing the generic ORCA reference.

Please note that relegating all ORCA citations to the supporting information does *not* help us.
SI sections are not indexed - citations you put there will not count into any citation statistics
But we need these citations in order to attract the funding resources that allow us to do what we are doing

Therefore, if you are a happy ORCA user, please consider citing a few of the papers listed below in the main body of your paper

In addition to the list printed below, the program has created the file WULCEO-S5.bibtex that contains the list in bibtex format
You can import this file easily into all common literature databanks and citation aid programs


List of essential papers. We consider these as the minimum necessary citations

  1. Neese,F.
     Software update: the ORCA program system, version 5.0
     WIRES Comput. Molec. Sci., 2022 12(1)e1606
     doi.org/10.1002/wcms.1606

List of papers to cite with high priority. The work reported in these papers was absolutely
necessary for this run to complete.
Our perspective: the developers of density functionals and basis sets usually get cited in chemistry papers
Good! But without the algorithms to do something with them, the functionals or basis sets would not do anything.
Hence, in our opinion, the algorithm design and method developments papers are equally worthy of getting cited

  1. Neese,F.
     An improvement of the resolution of the identity approximation for the formation of the Coulomb matrix
     J. Comp. Chem., 2003 24(14)1740-1747
     doi.org/10.1002/jcc.10318
  2. Neese,F.; Wennmohs,F.; Hansen,A.; Becker,U.
     Efficient, approximate and parallel Hartree-Fock and hybrid DFT calculations. A 'chain-of-spheres' algorithm for the Hartree-Fock exchange
     Chem. Phys., 2009 356(1-3)98-109
     doi.org/10.1016/j.chemphys.2008.10.036
  3. Bykov,D.; Petrenko,T.; Izsak,R.; Kossmann,S.; Becker,U.; Valeev,E.; Neese,F.
     Efficient implementation of the analytic second derivatives of Hartree-Fock and hybrid DFT energies: a detailed analysis of different approximations
     Molec. Phys., 2015 113 1961-1977
     doi.org/10.1080/00268976.2015.1025114
  4. Helmich-Paris,B.; de Souza,B.; Neese,F.; Izsák,R.
     An improved chain of spheres for exchange algorithm
     J. Chem. Phys., 2021 155 104109
     doi.org/doi: 10.1063/5.0058766.
  5. Neese,F.
     The SHARK Integral Generation and Digestion System
     J. Comp. Chem., 2022  1-16
     doi.org/10.1002/jcc.26942

List of suggested additional citations. These are papers that are important in the 'surrounding' of 
of this run, or papers that preceded the highly important papers. If you like your results we are grateful for a citation.

  1. Izsak,R.; Neese,F.
     An overlap fitted chain of spheres exchange method
     J. Chem. Phys., 2011 135 144105
     doi.org/10.1063/1.3646921
  2. Izsak,R.; Hansen,A.; Neese,F.
     The resolution of identity and chain of spheres approximations for the LPNO-CCSD singles Fock term
     Molec. Phys., 2012 110 2413-2417
     doi.org/10.1080/00268976.2012.687466
  3. Neese,F.
     The ORCA program system
     WIRES Comput. Molec. Sci., 2012 2(1)73-78
     doi.org/10.1002/wcms.81
  4. Izsak,R.; Neese,F.; Klopper,W.
     Robust fitting techniques in the chain of spheres approximation to the Fock exchange: The role of the complementary space
     J. Chem. Phys., 2013 139 
     doi.org/10.1063/1.4819264
  5. Neese,F.
     Software update: the ORCA program system, version 4.0
     WIRES Comput. Molec. Sci., 2018 8(1)1-6
     doi.org/10.1002/wcms.1327
  6. Neese,F.; Wennmohs,F.; Becker,U.; Riplinger,C.
     The ORCA quantum chemistry program package
     J. Chem. Phys., 2020 152 Art. No. L224108
     doi.org/10.1063/5.0004608

List of optional additional citations

  1. Neese,F.
     Approximate second-order SCF convergence for spin unrestricted wavefunctions
     Chem. Phys. Lett., 2000 325(1-3)93-98
     doi.org/10.1016/s0009-2614(00)00662-x

Timings for individual modules:

Sum of individual times          ...    16996.618 sec (= 283.277 min)
Startup calculation              ...      218.784 sec (=   3.646 min)   1.3 %
SCF iterations                   ...     4477.860 sec (=  74.631 min)  26.3 %
Property integrals               ...     3740.333 sec (=  62.339 min)  22.0 %
SCF Response                     ...     6321.429 sec (= 105.357 min)  37.2 %
Property calculations            ...     1227.407 sec (=  20.457 min)   7.2 %
SCF Gradient evaluation          ...     1010.081 sec (=  16.835 min)   5.9 %
Geometry relaxation              ...        0.725 sec (=   0.012 min)   0.0 %
                             ****ORCA TERMINATED NORMALLY****
TOTAL RUN TIME: 0 days 4 hours 43 minutes 41 seconds 194 msec
